
     Program PWSCF v.7.3.1 starts on  6Aug2024 at 14:42:27 

     This program is part of the open-source Quantum ESPRESSO suite
     for quantum simulation of materials; please cite
         "P. Giannozzi et al., J. Phys.:Condens. Matter 21 395502 (2009);
         "P. Giannozzi et al., J. Phys.:Condens. Matter 29 465901 (2017);
         "P. Giannozzi et al., J. Chem. Phys. 152 154105 (2020);
          URL http://www.quantum-espresso.org", 
     in publications or presentations arising from this work. More details at
     http://www.quantum-espresso.org/quote

     Parallel version (MPI), running on    24 processors

     MPI processes distributed on     1 nodes
     93628 MiB available memory on the printing compute node when the environment starts

     Waiting for input...
     Reading input from standard input

     Current dimensions of program PWSCF are:
     Max number of different atomic species (ntypx) = 10
     Max number of k-points (npk) =  40000
     Max angular momentum in pseudopotentials (lmaxx) =  4

     R & G space division:  proc/nbgrp/npool/nimage =      24
     Subspace diagonalization in iterative solution of the eigenvalue problem:
     a serial algorithm will be used


     Parallelization info
     --------------------
     sticks:   dense  smooth     PW     G-vecs:    dense   smooth      PW
     Min         457     229     62                24653     8716    1254
     Max         458     231     64                24654     8717    1255
     Sum       10979    5503   1507               591683   209203   30111

     Using Slab Decomposition


     Title: 
     volume variation                                                           


     bravais-lattice index     =            8
     lattice parameter (alat)  =      12.9671  a.u.
     unit-cell volume          =    1548.2628 (a.u.)^3
     number of atoms/cell      =           22
     number of atomic types    =            3
     number of electrons       =        48.00
     number of Kohn-Sham states=           24
     kinetic-energy cutoff     =     100.0000  Ry
     charge density cutoff     =     800.0000  Ry
     scf convergence threshold =      1.0E-10
     mixing beta               =       0.7000
     number of iterations used =            8  plain     mixing
     energy convergence thresh.=      1.0E-05
     force convergence thresh. =      1.0E-05
     press convergence thresh. =      5.0E-01
     Exchange-correlation= PBESOL
                           (   1   4  10   8   0   0   0)
     nstep                     =          300


     celldm(1)=  12.967070  celldm(2)=   1.025571  celldm(3)=   0.692394
     celldm(4)=   0.000000  celldm(5)=   0.000000  celldm(6)=   0.000000

     crystal axes: (cart. coord. in units of alat)
               a(1) = (   1.000000   0.000000   0.000000 )  
               a(2) = (   0.000000   1.025571   0.000000 )  
               a(3) = (   0.000000   0.000000   0.692394 )  

     reciprocal axes: (cart. coord. in units 2 pi/alat)
               b(1) = (  1.000000  0.000000  0.000000 )  
               b(2) = (  0.000000  0.975067  0.000000 )  
               b(3) = (  0.000000  0.000000  1.444264 )  


     PseudoPot. # 1 for B  read from file:
     /home/mehlhorn/pseudos/b_pbesol_v1.4.uspp.F.UPF
     MD5 check sum: 369b69bef2c3aeed4453bd8b804fd6a8
     Pseudo is Ultrasoft + core correction, Zval =  3.0
     Generated by new atomic code, or converted to UPF format
     Using radial grid of  781 points,  4 beta functions with: 
                l(1) =   0
                l(2) =   0
                l(3) =   1
                l(4) =   1
     Q(r) pseudized with  8 coefficients,  rinner =    1.100   1.100   1.100


     PseudoPot. # 2 for Ba read from file:
     /home/mehlhorn/pseudos/Ba.nc.z_10.oncvpsp4.dojo.v4-sp.upf
     MD5 check sum: c10ed334bb677c0554edec7181ce9143
     Pseudo is Norm-conserving + core correction, Zval = 10.0
     Generated using ONCVPSP code by D. R. Hamann
     Using radial grid of 1938 points,  8 beta functions with: 
                l(1) =   0
                l(2) =   0
                l(3) =   1
                l(4) =   1
                l(5) =   2
                l(6) =   2
                l(7) =   3
                l(8) =   3

     PseudoPot. # 3 for H  read from file:
     /home/mehlhorn/pseudos/H_ONCV_PBEsol-1.0.upf
     MD5 check sum: 398ef8f67c0a7342c05c87c5e19ea467
     Pseudo is Norm-conserving, Zval =  1.0
     Generated using ONCVPSP code by D. R. Hamann
     Using radial grid of 1180 points,  2 beta functions with: 
                l(1) =   0
                l(2) =   0

     atomic species   valence    mass     pseudopotential
     B                 3.00    10.81100     B ( 1.00)
     Ba               10.00   137.32700     Ba( 1.00)
     H                 1.00     1.00794     H ( 1.00)

      4 Sym. Ops. (no inversion) found ( 2 have fractional translation)



   Cartesian axes

     site n.     atom                  positions (alat units)
         1        Ba     tau(   1) = (   0.5000000   0.5127855   0.3462657  )
         2        Ba     tau(   2) = (   0.0000000   0.0000000   0.6923255  )
         3        B      tau(   3) = (   0.6102570   0.2453190   0.0000455  )
         4        B      tau(   4) = (   0.3897430   0.7802519   0.0000455  )
         5        B      tau(   5) = (   0.1102570   0.2674665   0.3461516  )
         6        B      tau(   6) = (   0.8897430   0.7581045   0.3461516  )
         7        H      tau(   7) = (   0.4340973   0.2996264   0.0001599  )
         8        H      tau(   8) = (   0.5659027   0.7259445   0.0001599  )
         9        H      tau(   9) = (   0.9340973   0.2131590   0.3460372  )
        10        H      tau(  10) = (   0.0659027   0.8124119   0.3460372  )
        11        H      tau(  11) = (   0.7220603   0.3933629  -0.0000058  )
        12        H      tau(  12) = (   0.2779397   0.6322081  -0.0000058  )
        13        H      tau(  13) = (   0.2220603   0.1194226   0.3462029  )
        14        H      tau(  14) = (   0.7779397   0.9061483   0.3462029  )
        15        H      tau(  15) = (   0.6392499   0.1457279   0.5404125  )
        16        H      tau(  16) = (   0.3607501   0.8798430   0.5404125  )
        17        H      tau(  17) = (   0.1392499   0.3670576   0.4981787  )
        18        H      tau(  18) = (   0.8607501   0.6585133   0.4981787  )
        19        H      tau(  19) = (   0.3605328   0.8798946   0.1519977  )
        20        H      tau(  20) = (   0.6394672   0.1456763   0.1519977  )
        21        H      tau(  21) = (   0.8605328   0.6584617   0.1941994  )
        22        H      tau(  22) = (   0.1394672   0.3671092   0.1941994  )

     number of k points=    27
                       cart. coord. in units 2pi/alat
        k(    1) = (   0.0000000   0.0000000   0.0000000), wk =   0.0312500
        k(    2) = (   0.0000000   0.0000000   0.3610660), wk =   0.0625000
        k(    3) = (   0.0000000   0.0000000  -0.7221320), wk =   0.0312500
        k(    4) = (   0.0000000   0.2437667   0.0000000), wk =   0.0625000
        k(    5) = (   0.0000000   0.2437667   0.3610660), wk =   0.1250000
        k(    6) = (   0.0000000   0.2437667  -0.7221320), wk =   0.0625000
        k(    7) = (   0.0000000  -0.4875333   0.0000000), wk =   0.0312500
        k(    8) = (   0.0000000  -0.4875333   0.3610660), wk =   0.0625000
        k(    9) = (   0.0000000  -0.4875333  -0.7221320), wk =   0.0312500
        k(   10) = (   0.2500000   0.0000000   0.0000000), wk =   0.0625000
        k(   11) = (   0.2500000   0.0000000   0.3610660), wk =   0.1250000
        k(   12) = (   0.2500000   0.0000000  -0.7221320), wk =   0.0625000
        k(   13) = (   0.2500000   0.2437667   0.0000000), wk =   0.1250000
        k(   14) = (   0.2500000   0.2437667   0.3610660), wk =   0.2500000
        k(   15) = (   0.2500000   0.2437667  -0.7221320), wk =   0.1250000
        k(   16) = (   0.2500000  -0.4875333   0.0000000), wk =   0.0625000
        k(   17) = (   0.2500000  -0.4875333   0.3610660), wk =   0.1250000
        k(   18) = (   0.2500000  -0.4875333  -0.7221320), wk =   0.0625000
        k(   19) = (  -0.5000000   0.0000000   0.0000000), wk =   0.0312500
        k(   20) = (  -0.5000000   0.0000000   0.3610660), wk =   0.0625000
        k(   21) = (  -0.5000000   0.0000000  -0.7221320), wk =   0.0312500
        k(   22) = (  -0.5000000   0.2437667   0.0000000), wk =   0.0625000
        k(   23) = (  -0.5000000   0.2437667   0.3610660), wk =   0.1250000
        k(   24) = (  -0.5000000   0.2437667  -0.7221320), wk =   0.0625000
        k(   25) = (  -0.5000000  -0.4875333   0.0000000), wk =   0.0312500
        k(   26) = (  -0.5000000  -0.4875333   0.3610660), wk =   0.0625000
        k(   27) = (  -0.5000000  -0.4875333  -0.7221320), wk =   0.0312500

     Dense  grid:   591683 G-vectors     FFT dimensions: ( 120, 120,  90)

     Smooth grid:   209203 G-vectors     FFT dimensions: (  90,  90,  60)

     Estimated max dynamical RAM per process >      95.41 MB

     Estimated total dynamical RAM >       2.24 GB

     Initial potential from superposition of free atoms

     starting charge      47.9682, renormalised to      48.0000
     Starting wfcs are   42 randomized atomic wfcs

     total cpu time spent up to now is       13.2 secs

     Self-consistent Calculation

     iteration #  1     ecut=   100.00 Ry     beta= 0.70
     Davidson diagonalization with overlap
     ethr =  1.00E-02,  avg # of iterations =  2.0

     total cpu time spent up to now is       31.1 secs

     total energy              =    -155.95572733 Ry
     estimated scf accuracy    <       1.90957274 Ry

     iteration #  2     ecut=   100.00 Ry     beta= 0.70
     Davidson diagonalization with overlap
     ethr =  3.98E-03,  avg # of iterations =  2.0

     total cpu time spent up to now is       48.5 secs

     total energy              =    -156.39182728 Ry
     estimated scf accuracy    <       0.36130562 Ry

     iteration #  3     ecut=   100.00 Ry     beta= 0.70
     Davidson diagonalization with overlap
     ethr =  7.53E-04,  avg # of iterations =  2.0

     total cpu time spent up to now is       66.0 secs

     total energy              =    -156.45246929 Ry
     estimated scf accuracy    <       0.00461567 Ry

     iteration #  4     ecut=   100.00 Ry     beta= 0.70
     Davidson diagonalization with overlap
     ethr =  9.62E-06,  avg # of iterations =  5.2

     total cpu time spent up to now is       91.2 secs

     total energy              =    -156.45523157 Ry
     estimated scf accuracy    <       0.00183356 Ry

     iteration #  5     ecut=   100.00 Ry     beta= 0.70
     Davidson diagonalization with overlap
     ethr =  3.82E-06,  avg # of iterations =  2.9

     total cpu time spent up to now is      109.1 secs

     total energy              =    -156.45585510 Ry
     estimated scf accuracy    <       0.00018719 Ry

     iteration #  6     ecut=   100.00 Ry     beta= 0.70
     Davidson diagonalization with overlap
     ethr =  3.90E-07,  avg # of iterations =  4.1

     total cpu time spent up to now is      128.9 secs

     total energy              =    -156.45592131 Ry
     estimated scf accuracy    <       0.00000165 Ry

     iteration #  7     ecut=   100.00 Ry     beta= 0.70
     Davidson diagonalization with overlap
     ethr =  3.43E-09,  avg # of iterations =  8.8

     total cpu time spent up to now is      168.4 secs

     total energy              =    -156.45593357 Ry
     estimated scf accuracy    <       0.00000134 Ry

     iteration #  8     ecut=   100.00 Ry     beta= 0.70
     Davidson diagonalization with overlap
     ethr =  2.79E-09,  avg # of iterations =  2.0

     total cpu time spent up to now is      185.8 secs

     total energy              =    -156.45593384 Ry
     estimated scf accuracy    <       0.00000002 Ry

     iteration #  9     ecut=   100.00 Ry     beta= 0.70
     Davidson diagonalization with overlap
     ethr =  3.94E-11,  avg # of iterations =  6.0

     total cpu time spent up to now is      212.5 secs

     total energy              =    -156.45593387 Ry
     estimated scf accuracy    <          3.5E-09 Ry

     iteration # 10     ecut=   100.00 Ry     beta= 0.70
     Davidson diagonalization with overlap
     ethr =  7.23E-12,  avg # of iterations =  3.0

     total cpu time spent up to now is      232.1 secs

     total energy              =    -156.45593387 Ry
     estimated scf accuracy    <          4.5E-10 Ry

     iteration # 11     ecut=   100.00 Ry     beta= 0.70
     Davidson diagonalization with overlap
     ethr =  9.28E-13,  avg # of iterations =  4.4

     total cpu time spent up to now is      252.5 secs

     End of self-consistent calculation

          k = 0.0000 0.0000 0.0000 ( 26171 PWs)   bands (ev):

   -24.5799 -24.5741  -9.9887  -9.9279  -9.7878  -9.7615  -9.7268  -9.6811
    -6.2015  -5.3059  -4.8000  -4.6297  -1.9587  -1.1016  -1.0684  -0.6843
    -0.3553  -0.3429  -0.3401  -0.1751  -0.0345   0.3453   0.3770   0.4159

          k = 0.0000 0.0000 0.3611 ( 26163 PWs)   bands (ev):

   -24.5746 -24.5704  -9.9191  -9.9118  -9.8905  -9.8789  -9.7758  -9.7615
    -5.7862  -5.1128  -4.9190  -4.8039  -1.6322  -1.3853  -0.9260  -0.8570
    -0.7441  -0.6457  -0.3039  -0.0396   0.1780   0.1818   0.2480   0.3970

          k = 0.0000 0.0000-0.7221 ( 26136 PWs)   bands (ev):

   -24.5680 -24.5680 -10.0762 -10.0761  -9.8133  -9.8133  -9.7869  -9.7868
    -5.1528  -5.1523  -5.0117  -5.0112  -1.3881  -1.3877  -1.3686  -1.3671
    -0.3576  -0.3569  -0.3328  -0.3311   0.2024   0.2026   0.2302   0.2308

          k = 0.0000 0.2438 0.0000 ( 26156 PWs)   bands (ev):

   -24.5791 -24.5749  -9.9665  -9.9061  -9.8230  -9.7860  -9.7200  -9.6876
    -6.0321  -5.2357  -5.0429  -4.7353  -1.6368  -1.2634  -1.1560  -0.4494
    -0.4368  -0.4007  -0.1408  -0.0399   0.0475   0.0550   0.2676   0.3495

          k = 0.0000 0.2438 0.3611 ( 26145 PWs)   bands (ev):

   -24.5740 -24.5710  -9.9470  -9.9142  -9.8639  -9.8596  -9.7804  -9.7765
    -5.6854  -5.1738  -4.9667  -4.8456  -1.4516  -1.4093  -1.1825  -0.6725
    -0.6274  -0.4320  -0.4281   0.0055   0.1027   0.1264   0.2325   0.2905

          k = 0.0000 0.2438-0.7221 ( 26170 PWs)   bands (ev):

   -24.5680 -24.5680 -10.0866 -10.0865  -9.8007  -9.8007  -9.7862  -9.7862
    -5.3390  -5.3389  -4.8202  -4.8201  -1.4805  -1.4799  -1.2267  -1.2260
    -0.2957  -0.2939  -0.2907  -0.2906   0.0572   0.0573   0.2241   0.2244

          k = 0.0000-0.4875 0.0000 ( 26122 PWs)   bands (ev):

   -24.5770 -24.5770  -9.9067  -9.9067  -9.8419  -9.8419  -9.7037  -9.7037
    -5.5973  -5.5973  -4.9732  -4.9732  -1.3725  -1.3725  -0.7265  -0.7265
    -0.5081  -0.5081  -0.0276  -0.0276   0.0755   0.0755   0.2136   0.2136

          k = 0.0000-0.4875 0.3611 ( 26152 PWs)   bands (ev):

   -24.5725 -24.5725  -9.9441  -9.9441  -9.8298  -9.8298  -9.7989  -9.7989
    -5.4305  -5.4305  -4.9289  -4.9289  -1.3895  -1.3895  -0.9786  -0.9786
    -0.4096  -0.4096  -0.1402  -0.1402   0.0203   0.0203   0.2156   0.2156

          k = 0.0000-0.4875-0.7221 ( 26144 PWs)   bands (ev):

   -24.5680 -24.5680 -10.0962 -10.0962  -9.7918  -9.7918  -9.7826  -9.7826
    -5.4375  -5.4375  -4.7167  -4.7167  -1.5592  -1.5592  -1.0251  -1.0251
    -0.3479  -0.3479  -0.2157  -0.2157  -0.1172  -0.1172   0.2594   0.2594

          k = 0.2500 0.0000 0.0000 ( 26139 PWs)   bands (ev):

   -24.5791 -24.5749  -9.9606  -9.9131  -9.8177  -9.7958  -9.7200  -9.6876
    -6.0390  -5.3629  -4.8215  -4.7571  -1.7823  -1.0007  -0.9687  -0.8114
    -0.3417  -0.2846  -0.2243  -0.1560  -0.0676  -0.0439   0.3206   0.3658

          k = 0.2500 0.0000 0.3611 ( 26145 PWs)   bands (ev):

   -24.5740 -24.5710  -9.9390  -9.9233  -9.8862  -9.8409  -9.7926  -9.7668
    -5.6543  -5.1205  -4.9393  -4.9153  -1.6008  -1.3541  -1.2067  -0.7250
    -0.6745  -0.4566  -0.2221  -0.0931   0.0175   0.1533   0.3340   0.3489

          k = 0.2500 0.0000-0.7221 ( 26124 PWs)   bands (ev):

   -24.5680 -24.5680 -10.0896 -10.0895  -9.8046  -9.8046  -9.7838  -9.7837
    -5.1627  -5.1622  -4.9780  -4.9777  -1.8152  -1.8148  -0.9839  -0.9834
    -0.3669  -0.3666  -0.0986  -0.0970   0.0355   0.0357   0.2670   0.2673

          k = 0.2500 0.2438 0.0000 ( 26141 PWs)   bands (ev):

   -24.5784 -24.5755  -9.9799  -9.8948  -9.8533  -9.7659  -9.7150  -9.6922
    -5.9085  -5.3291  -5.0180  -4.8056  -1.5188  -1.2168  -0.9822  -0.5473
    -0.4791  -0.4389  -0.1551  -0.0308   0.0025   0.0563   0.1497   0.2798

          k = 0.2500 0.2438 0.3611 ( 26126 PWs)   bands (ev):

   -24.5735 -24.5715  -9.9391  -9.9130  -9.9109  -9.8284  -9.7974  -9.7634
    -5.5688  -5.1332  -5.0406  -4.9195  -1.5580  -1.3138  -1.2406  -0.7179
    -0.5409  -0.3892  -0.2812  -0.0847   0.0126   0.1211   0.2543   0.3310

          k = 0.2500 0.2438-0.7221 ( 26170 PWs)   bands (ev):

   -24.5680 -24.5680 -10.0951 -10.0781  -9.8179  -9.7926  -9.7884  -9.7846
    -5.3353  -5.2063  -4.9300  -4.7989  -1.7911  -1.7290  -1.0357  -0.9738
    -0.4063  -0.4030  -0.1220  -0.0810   0.0739   0.0899   0.2137   0.2587

          k = 0.2500-0.4875 0.0000 ( 26140 PWs)   bands (ev):

   -24.5770 -24.5770  -9.9605  -9.9605  -9.7898  -9.7898  -9.7034  -9.7034
    -5.5747  -5.5747  -4.9930  -4.9930  -1.2703  -1.2703  -0.7401  -0.7401
    -0.5380  -0.5380  -0.0903  -0.0903   0.1046   0.1046   0.1491   0.1491

          k = 0.2500-0.4875 0.3611 ( 26150 PWs)   bands (ev):

   -24.5725 -24.5725  -9.9371  -9.9371  -9.8681  -9.8681  -9.7725  -9.7725
    -5.3525  -5.3525  -4.9943  -4.9943  -1.4638  -1.4638  -0.9365  -0.9365
    -0.4076  -0.4076  -0.1093  -0.1093   0.0187   0.0187   0.2301   0.2301

          k = 0.2500-0.4875-0.7221 ( 26160 PWs)   bands (ev):

   -24.5680 -24.5680 -10.0843 -10.0843  -9.8060  -9.8060  -9.7884  -9.7884
    -5.3526  -5.3526  -4.7776  -4.7776  -1.6941  -1.6941  -1.0707  -1.0707
    -0.3055  -0.3055  -0.1888  -0.1888   0.0668   0.0668   0.2460   0.2460

          k =-0.5000 0.0000 0.0000 ( 26218 PWs)   bands (ev):

   -24.5770 -24.5770  -9.8940  -9.8940  -9.8602  -9.8602  -9.7036  -9.7036
    -5.6594  -5.6594  -4.8496  -4.8496  -1.3897  -1.3897  -0.6381  -0.6381
    -0.3017  -0.3017  -0.2634  -0.2634  -0.1702  -0.1702   0.2286   0.2286

          k =-0.5000 0.0000 0.3611 ( 26122 PWs)   bands (ev):

   -24.5725 -24.5725  -9.9455  -9.9455  -9.8448  -9.8448  -9.7898  -9.7898
    -5.3415  -5.3415  -4.9769  -4.9769  -1.5150  -1.5150  -0.9864  -0.9864
    -0.4118  -0.4118  -0.2334  -0.2334   0.1165   0.1165   0.3170   0.3170

          k =-0.5000 0.0000-0.7221 ( 26104 PWs)   bands (ev):

   -24.5680 -24.5680 -10.1020 -10.1020  -9.7985  -9.7985  -9.7790  -9.7790
    -5.1733  -5.1733  -4.9419  -4.9419  -2.0110  -2.0110  -0.7421  -0.7421
    -0.3806  -0.3806  -0.2093  -0.2093   0.1966   0.1966   0.2440   0.2440

          k =-0.5000 0.2438 0.0000 ( 26188 PWs)   bands (ev):

   -24.5770 -24.5770  -9.9596  -9.9596  -9.7935  -9.7935  -9.7034  -9.7034
    -5.6115  -5.6115  -4.9256  -4.9256  -1.2866  -1.2866  -0.6450  -0.6450
    -0.4766  -0.4766  -0.2970  -0.2970   0.0233   0.0233   0.2041   0.2041

          k =-0.5000 0.2438 0.3611 ( 26152 PWs)   bands (ev):

   -24.5725 -24.5725  -9.9380  -9.9380  -9.8719  -9.8719  -9.7715  -9.7715
    -5.2950  -5.2950  -5.0311  -5.0311  -1.5162  -1.5162  -0.9685  -0.9685
    -0.3759  -0.3759  -0.1862  -0.1862   0.1089   0.1089   0.2527   0.2527

          k =-0.5000 0.2438-0.7221 ( 26140 PWs)   bands (ev):

   -24.5680 -24.5680 -10.0875 -10.0875  -9.8080  -9.8080  -9.7876  -9.7876
    -5.2115  -5.2115  -4.8991  -4.8991  -1.9249  -1.9249  -0.9230  -0.9230
    -0.3372  -0.3372  -0.1530  -0.1530   0.1595   0.1595   0.2862   0.2862

          k =-0.5000-0.4875 0.0000 ( 26116 PWs)   bands (ev):

   -24.5770 -24.5770  -9.9922  -9.9922  -9.7597  -9.7597  -9.7032  -9.7032
    -5.5518  -5.5518  -5.0124  -5.0124  -1.1339  -1.1339  -0.7947  -0.7947
    -0.5655  -0.5655  -0.1062  -0.1062   0.0440   0.0440   0.1311   0.1311

          k =-0.5000-0.4875 0.3611 ( 26144 PWs)   bands (ev):

   -24.5725 -24.5725  -9.9250  -9.9250  -9.8976  -9.8976  -9.7600  -9.7600
    -5.2109  -5.2109  -5.1228  -5.1228  -1.4987  -1.4987  -1.0154  -1.0154
    -0.2360  -0.2360  -0.0945  -0.0945   0.0404   0.0404   0.1453   0.1453

          k =-0.5000-0.4875-0.7221 ( 26192 PWs)   bands (ev):

   -24.5680 -24.5680 -10.0710 -10.0710  -9.8230  -9.8230  -9.7926  -9.7926
    -5.2416  -5.2416  -4.8642  -4.8642  -1.7890  -1.7890  -1.1825  -1.1825
    -0.1372  -0.1372  -0.0879  -0.0879   0.0545   0.0545   0.2550   0.2550

     highest occupied level (ev):     0.4159

!    total energy              =    -156.45593387 Ry
     estimated scf accuracy    <          5.1E-11 Ry

     The total energy is the sum of the following terms:
     one-electron contribution =     -25.86276650 Ry
     hartree contribution      =      26.29793977 Ry
     xc contribution           =     -48.73700112 Ry
     ewald contribution        =    -108.15410601 Ry

     convergence has been achieved in  11 iterations

     Forces acting on atoms (cartesian axes, Ry/au):

     atom    1 type  2   force =     0.00000000    0.00000000    0.00000892
     atom    2 type  2   force =     0.00000000    0.00000000   -0.00000892
     atom    3 type  1   force =     0.00044869    0.00229280   -0.00001565
     atom    4 type  1   force =    -0.00044869   -0.00229280   -0.00001565
     atom    5 type  1   force =     0.00044869   -0.00229280    0.00001565
     atom    6 type  1   force =    -0.00044869    0.00229280    0.00001565
     atom    7 type  3   force =     0.02064606   -0.00526431   -0.00002264
     atom    8 type  3   force =    -0.02064606    0.00526431   -0.00002264
     atom    9 type  3   force =     0.02064606    0.00526431    0.00002264
     atom   10 type  3   force =    -0.02064606   -0.00526431    0.00002264
     atom   11 type  3   force =    -0.01363699   -0.01652656    0.00000905
     atom   12 type  3   force =     0.01363699    0.01652656    0.00000905
     atom   13 type  3   force =    -0.01363699    0.01652656   -0.00000905
     atom   14 type  3   force =     0.01363699   -0.01652656   -0.00000905
     atom   15 type  3   force =    -0.00256309    0.01214072    0.01843586
     atom   16 type  3   force =     0.00256309   -0.01214072    0.01843586
     atom   17 type  3   force =    -0.00256309   -0.01214072   -0.01843586
     atom   18 type  3   force =     0.00256309    0.01214072   -0.01843586
     atom   19 type  3   force =     0.00262568   -0.01216095   -0.01843935
     atom   20 type  3   force =    -0.00262568    0.01216095   -0.01843935
     atom   21 type  3   force =     0.00262568    0.01216095    0.01843935
     atom   22 type  3   force =    -0.00262568   -0.01216095    0.01843935

     Total force =     0.087342     Total SCF correction =     0.000004


     Computing stress (Cartesian axis) and pressure

          total   stress  (Ry/bohr**3)                   (kbar)     P=      -43.30
  -0.00027437   0.00000000   0.00000000          -40.36        0.00        0.00
   0.00000000  -0.00027968   0.00000000            0.00      -41.14        0.00
   0.00000000   0.00000000  -0.00032903            0.00        0.00      -48.40

     Volume is kept fixed: isostatic pressure set to zero

     BFGS Geometry Optimization
     Energy error            =      0.0E+00 Ry
     Gradient error          =      2.1E-02 Ry/Bohr
     Cell gradient error     =      5.1E+00 kbar

     number of scf cycles    =   1
     number of bfgs steps    =   0

     enthalpy           new  =    -156.4559338669 Ry

     new trust radius        =       0.0222439310 bohr
ibrav =      8
 celldm(1) =     12.97355191
 celldm(2) =      1.02543493
 celldm(3) =      0.69144856
Input lattice vectors:
     1.00049987     0.00000000     0.00000000
     0.00000000     1.02594752     0.00000000
     0.00000000     0.00000000     0.69179420
New lattice vectors in INITIAL alat:
     1.00049987     0.00000000     0.00000000
     0.00000000     1.02594752     0.00000000
     0.00000000     0.00000000     0.69179420
New lattice vectors in NEW alat (for information only):
     1.00000000     0.00000000     0.00000000
     0.00000000     1.02543493     0.00000000
     0.00000000     0.00000000     0.69144856
Discrepancy in bohr =     0.000000    0.000000    0.000000
     new conv_thr            =            1.0E-10 Ry

     new unit-cell volume =   1548.26276 a.u.^3 (   229.42887 Ang^3 )
     density =      2.41758 g/cm^3

CELL_PARAMETERS (alat= 12.96707008)
   1.000499869   0.000000000   0.000000000
   0.000000000   1.025947516   0.000000000
   0.000000000   0.000000000   0.691794197

ATOMIC_POSITIONS (crystal)
Ba               0.5000000000        0.5000000000        0.5001001591
Ba               0.0000000000        0.0000000000        0.9998998409
B                0.6102916185        0.2393747885        0.0000639133
B                0.3897083815        0.7606252115        0.0000639133
B                0.1102916185        0.2606252115        0.4999360867
B                0.8897083815        0.7393747885        0.4999360867
H                0.4356894436        0.2917598755        0.0002284116
H                0.5643105564        0.7082401245        0.0002284116
H                0.9356894436        0.2082401245        0.4997715884
H                0.0643105564        0.7917598755        0.4997715884
H                0.7210086049        0.3823122847       -0.0000073632
H                0.2789913951        0.6176877153       -0.0000073632
H                0.2210086049        0.1176877153        0.5000073632
H                0.7789913951        0.8823122847        0.5000073632
H                0.6390522627        0.1430073240        0.7825517883
H                0.3609477373        0.8569926760        0.7825517883
H                0.1390522627        0.3569926760        0.7174482117
H                0.8609477373        0.6430073240        0.7174482117
H                0.3607353189        0.8570414651        0.2174710850
H                0.6392646811        0.1429585349        0.2174710850
H                0.8607353189        0.6429585349        0.2825289150
H                0.1392646811        0.3570414651        0.2825289150



     Writing config-only to output data dir ./pwscf.save/ :
     XML data file
     NEW-OLD atomic charge density approx. for the potential

     total cpu time spent up to now is      285.7 secs

     Self-consistent Calculation

     iteration #  1     ecut=   100.00 Ry     beta= 0.70
     Davidson diagonalization with overlap
     ethr =  1.00E-06,  avg # of iterations =  5.0

     total cpu time spent up to now is      310.4 secs

     total energy              =    -156.46168551 Ry
     estimated scf accuracy    <       0.00186485 Ry

     iteration #  2     ecut=   100.00 Ry     beta= 0.70
     Davidson diagonalization with overlap
     ethr =  3.89E-06,  avg # of iterations =  2.0

     total cpu time spent up to now is      326.9 secs

     total energy              =    -156.46224928 Ry
     estimated scf accuracy    <       0.00047121 Ry

     iteration #  3     ecut=   100.00 Ry     beta= 0.70
     Davidson diagonalization with overlap
     ethr =  9.82E-07,  avg # of iterations =  2.0

     total cpu time spent up to now is      343.3 secs

     total energy              =    -156.46230956 Ry
     estimated scf accuracy    <       0.00000740 Ry

     iteration #  4     ecut=   100.00 Ry     beta= 0.70
     Davidson diagonalization with overlap
     ethr =  1.54E-08,  avg # of iterations =  3.0

     total cpu time spent up to now is      362.5 secs

     total energy              =    -156.46231338 Ry
     estimated scf accuracy    <       0.00000538 Ry

     iteration #  5     ecut=   100.00 Ry     beta= 0.70
     Davidson diagonalization with overlap
     ethr =  1.12E-08,  avg # of iterations =  2.0

     total cpu time spent up to now is      379.0 secs

     total energy              =    -156.46231367 Ry
     estimated scf accuracy    <       0.00000042 Ry

     iteration #  6     ecut=   100.00 Ry     beta= 0.70
     Davidson diagonalization with overlap
     ethr =  8.76E-10,  avg # of iterations =  2.7

     total cpu time spent up to now is      395.8 secs

     total energy              =    -156.46231384 Ry
     estimated scf accuracy    <       0.00000009 Ry

     iteration #  7     ecut=   100.00 Ry     beta= 0.70
     Davidson diagonalization with overlap
     ethr =  1.90E-10,  avg # of iterations =  2.1

     total cpu time spent up to now is      412.4 secs

     total energy              =    -156.46231386 Ry
     estimated scf accuracy    <          3.0E-09 Ry

     iteration #  8     ecut=   100.00 Ry     beta= 0.70
     Davidson diagonalization with overlap
     ethr =  6.23E-12,  avg # of iterations =  5.5

     total cpu time spent up to now is      436.5 secs

     End of self-consistent calculation

          k = 0.0000 0.0000 0.0000 ( 26171 PWs)   bands (ev):

   -24.5995 -24.5937 -10.0083  -9.9467  -9.8064  -9.7798  -9.7445  -9.6991
    -6.2404  -5.3675  -4.8590  -4.6924  -1.9579  -1.1125  -1.0918  -0.7205
    -0.3736  -0.3686  -0.3615  -0.2048  -0.0609   0.3035   0.3347   0.3709

          k = 0.0000 0.0000 0.3614 ( 26163 PWs)   bands (ev):

   -24.5942 -24.5900  -9.9380  -9.9311  -9.9101  -9.8974  -9.7941  -9.7798
    -5.8275  -5.1724  -4.9803  -4.8680  -1.6287  -1.3898  -0.9310  -0.8818
    -0.7664  -0.6694  -0.3343  -0.0757   0.1391   0.1421   0.2111   0.3544

          k = 0.0000 0.0000-0.7228 ( 26136 PWs)   bands (ev):

   -24.5876 -24.5876 -10.0968 -10.0967  -9.8313  -9.8312  -9.8051  -9.8051
    -5.2041  -5.2036  -5.0760  -5.0755  -1.3894  -1.3889  -1.3683  -1.3668
    -0.3907  -0.3901  -0.3626  -0.3609   0.1642   0.1644   0.1888   0.1894

          k = 0.0000 0.2437 0.0000 ( 26156 PWs)   bands (ev):

   -24.5987 -24.5946  -9.9860  -9.9252  -9.8414  -9.8044  -9.7377  -9.7056
    -6.0726  -5.2972  -5.0963  -4.7977  -1.6429  -1.2740  -1.1735  -0.4726
    -0.4640  -0.4384  -0.1651  -0.0689   0.0179   0.0183   0.2263   0.3082

          k = 0.0000 0.2437 0.3614 ( 26145 PWs)   bands (ev):

   -24.5936 -24.5906  -9.9661  -9.9335  -9.8831  -9.8782  -9.7988  -9.7947
    -5.7289  -5.2317  -5.0258  -4.9086  -1.4521  -1.4130  -1.1916  -0.6914
    -0.6511  -0.4653  -0.4537  -0.0306   0.0650   0.0873   0.1944   0.2507

          k = 0.0000 0.2437-0.7228 ( 26170 PWs)   bands (ev):

   -24.5876 -24.5876 -10.1072 -10.1071  -9.8186  -9.8186  -9.8045  -9.8045
    -5.3958  -5.3957  -4.8785  -4.8785  -1.4808  -1.4801  -1.2290  -1.2284
    -0.3261  -0.3253  -0.3245  -0.3236   0.0209   0.0210   0.1830   0.1833

          k = 0.0000-0.4874 0.0000 ( 26122 PWs)   bands (ev):

   -24.5966 -24.5966  -9.9262  -9.9262  -9.8600  -9.8600  -9.7215  -9.7215
    -5.6430  -5.6430  -5.0347  -5.0347  -1.3817  -1.3817  -0.7502  -0.7502
    -0.5324  -0.5324  -0.0683  -0.0683   0.0455   0.0455   0.1777   0.1777

          k = 0.0000-0.4874 0.3614 ( 26152 PWs)   bands (ev):

   -24.5921 -24.5921  -9.9632  -9.9632  -9.8491  -9.8491  -9.8168  -9.8168
    -5.4804  -5.4804  -4.9895  -4.9895  -1.3924  -1.3924  -0.9926  -0.9926
    -0.4389  -0.4389  -0.1706  -0.1706  -0.0195  -0.0195   0.1774   0.1774

          k = 0.0000-0.4874-0.7228 ( 26144 PWs)   bands (ev):

   -24.5876 -24.5876 -10.1167 -10.1167  -9.8098  -9.8098  -9.8009  -9.8009
    -5.4950  -5.4950  -4.7739  -4.7739  -1.5591  -1.5591  -1.0283  -1.0283
    -0.3825  -0.3825  -0.2448  -0.2448  -0.1541  -0.1541   0.2176   0.2176

          k = 0.2499 0.0000 0.0000 ( 26139 PWs)   bands (ev):

   -24.5987 -24.5946  -9.9801  -9.9319  -9.8364  -9.8141  -9.7377  -9.7056
    -6.0800  -5.4204  -4.8814  -4.8183  -1.7836  -1.0150  -0.9862  -0.8388
    -0.3630  -0.3158  -0.2503  -0.1870  -0.0970  -0.0788   0.2785   0.3208

          k = 0.2499 0.0000 0.3614 ( 26145 PWs)   bands (ev):

   -24.5936 -24.5906  -9.9581  -9.9426  -9.9052  -9.8598  -9.8108  -9.7852
    -5.6977  -5.1779  -5.0009  -4.9778  -1.5960  -1.3639  -1.2087  -0.7476
    -0.7016  -0.4829  -0.2562  -0.1269  -0.0182   0.1167   0.2914   0.3095

          k = 0.2499 0.0000-0.7228 ( 26124 PWs)   bands (ev):

   -24.5876 -24.5876 -10.1102 -10.1101  -9.8225  -9.8225  -9.8021  -9.8021
    -5.2212  -5.2208  -5.0355  -5.0352  -1.8104  -1.8099  -0.9915  -0.9911
    -0.3991  -0.3988  -0.1310  -0.1295  -0.0007  -0.0006   0.2260   0.2264

          k = 0.2499 0.2437 0.0000 ( 26141 PWs)   bands (ev):

   -24.5981 -24.5952  -9.9991  -9.9143  -9.8714  -9.7843  -9.7329  -9.7102
    -5.9514  -5.3861  -5.0740  -4.8654  -1.5270  -1.2306  -1.0010  -0.5725
    -0.5025  -0.4638  -0.1896  -0.0602  -0.0336   0.0256   0.1097   0.2406

          k = 0.2499 0.2437 0.3614 ( 26126 PWs)   bands (ev):

   -24.5931 -24.5911  -9.9584  -9.9317  -9.9301  -9.8477  -9.8153  -9.7817
    -5.6143  -5.1916  -5.0975  -4.9813  -1.5564  -1.3164  -1.2518  -0.7407
    -0.5670  -0.4171  -0.3138  -0.1171  -0.0243   0.0826   0.2149   0.2917

          k = 0.2499 0.2437-0.7228 ( 26170 PWs)   bands (ev):

   -24.5876 -24.5875 -10.1158 -10.0986  -9.8358  -9.8105  -9.8065  -9.8030
    -5.3940  -5.2641  -4.9882  -4.8560  -1.7865  -1.7239  -1.0449  -0.9813
    -0.4379  -0.4342  -0.1530  -0.1146   0.0361   0.0517   0.1753   0.2162

          k = 0.2499-0.4874 0.0000 ( 26140 PWs)   bands (ev):

   -24.5966 -24.5966  -9.9795  -9.9795  -9.8083  -9.8083  -9.7213  -9.7213
    -5.6234  -5.6234  -5.0505  -5.0505  -1.2842  -1.2842  -0.7634  -0.7634
    -0.5614  -0.5614  -0.1237  -0.1237   0.0735   0.0735   0.1105   0.1105

          k = 0.2499-0.4874 0.3614 ( 26150 PWs)   bands (ev):

   -24.5921 -24.5921  -9.9561  -9.9561  -9.8871  -9.8871  -9.7908  -9.7908
    -5.4038  -5.4038  -5.0533  -5.0533  -1.4651  -1.4651  -0.9546  -0.9546
    -0.4349  -0.4349  -0.1425  -0.1425  -0.0183  -0.0183   0.1915   0.1915

          k = 0.2499-0.4874-0.7228 ( 26160 PWs)   bands (ev):

   -24.5875 -24.5875 -10.1049 -10.1049  -9.8239  -9.8239  -9.8066  -9.8066
    -5.4109  -5.4109  -4.8350  -4.8350  -1.6893  -1.6893  -1.0799  -1.0799
    -0.3385  -0.3385  -0.2190  -0.2190   0.0283   0.0283   0.2054   0.2054

          k =-0.4998 0.0000 0.0000 ( 26218 PWs)   bands (ev):

   -24.5966 -24.5966  -9.9137  -9.9137  -9.8780  -9.8780  -9.7215  -9.7215
    -5.7068  -5.7068  -4.9109  -4.9109  -1.3959  -1.3959  -0.6611  -0.6611
    -0.3235  -0.3235  -0.2989  -0.2989  -0.2021  -0.2021   0.1862   0.1862

          k =-0.4998 0.0000 0.3614 ( 26122 PWs)   bands (ev):

   -24.5921 -24.5921  -9.9647  -9.9647  -9.8637  -9.8637  -9.8080  -9.8080
    -5.3907  -5.3907  -5.0394  -5.0394  -1.5130  -1.5130  -1.0029  -1.0029
    -0.4422  -0.4422  -0.2660  -0.2660   0.0807   0.0807   0.2757   0.2757

          k =-0.4998 0.0000-0.7228 ( 26104 PWs)   bands (ev):

   -24.5875 -24.5875 -10.1226 -10.1226  -9.8164  -9.8164  -9.7974  -9.7974
    -5.2359  -5.2359  -4.9960  -4.9960  -2.0038  -2.0038  -0.7526  -0.7526
    -0.4126  -0.4126  -0.2428  -0.2428   0.1611   0.1611   0.2020   0.2020

          k =-0.4998 0.2437 0.0000 ( 26188 PWs)   bands (ev):

   -24.5966 -24.5966  -9.9786  -9.9786  -9.8120  -9.8120  -9.7213  -9.7213
    -5.6608  -5.6608  -4.9833  -4.9833  -1.2992  -1.2992  -0.6672  -0.6672
    -0.4997  -0.4997  -0.3293  -0.3293  -0.0077  -0.0077   0.1631   0.1631

          k =-0.4998 0.2437 0.3614 ( 26152 PWs)   bands (ev):

   -24.5921 -24.5921  -9.9570  -9.9570  -9.8909  -9.8909  -9.7898  -9.7898
    -5.3458  -5.3458  -5.0914  -5.0914  -1.5156  -1.5156  -0.9864  -0.9864
    -0.4058  -0.4058  -0.2188  -0.2188   0.0723   0.0723   0.2137   0.2137

          k =-0.4998 0.2437-0.7228 ( 26140 PWs)   bands (ev):

   -24.5875 -24.5875 -10.1081 -10.1081  -9.8259  -9.8259  -9.8059  -9.8059
    -5.2722  -5.2722  -4.9551  -4.9551  -1.9178  -1.9178  -0.9339  -0.9339
    -0.3683  -0.3683  -0.1876  -0.1876   0.1225   0.1225   0.2455   0.2455

          k =-0.4998-0.4874 0.0000 ( 26116 PWs)   bands (ev):

   -24.5966 -24.5966 -10.0112 -10.0112  -9.7782  -9.7782  -9.7211  -9.7211
    -5.6039  -5.6039  -5.0656  -5.0656  -1.1574  -1.1574  -0.8102  -0.8102
    -0.5880  -0.5880  -0.1398  -0.1398   0.0078   0.0078   0.0990   0.0990

          k =-0.4998-0.4874 0.3614 ( 26144 PWs)   bands (ev):

   -24.5921 -24.5921  -9.9434  -9.9434  -9.9171  -9.9171  -9.7783  -9.7783
    -5.2647  -5.2647  -5.1793  -5.1793  -1.4990  -1.4990  -1.0343  -1.0343
    -0.2653  -0.2653  -0.1320  -0.1320   0.0047   0.0047   0.1112   0.1112

          k =-0.4998-0.4874-0.7228 ( 26192 PWs)   bands (ev):

   -24.5875 -24.5875 -10.0917 -10.0917  -9.8409  -9.8409  -9.8107  -9.8107
    -5.3012  -5.3012  -4.9214  -4.9214  -1.7816  -1.7816  -1.1926  -1.1926
    -0.1720  -0.1720  -0.1256  -0.1256   0.0202   0.0202   0.2168   0.2168

     highest occupied level (ev):     0.3709

!    total energy              =    -156.46231386 Ry
     estimated scf accuracy    <          5.0E-11 Ry

     The total energy is the sum of the following terms:
     one-electron contribution =     -26.50167090 Ry
     hartree contribution      =      26.61778539 Ry
     xc contribution           =     -48.81658125 Ry
     ewald contribution        =    -107.76184709 Ry

     convergence has been achieved in   8 iterations

     Forces acting on atoms (cartesian axes, Ry/au):

     atom    1 type  2   force =     0.00000000    0.00000000    0.00000727
     atom    2 type  2   force =     0.00000000    0.00000000   -0.00000727
     atom    3 type  1   force =     0.00061484    0.00253259   -0.00001064
     atom    4 type  1   force =    -0.00061484   -0.00253259   -0.00001064
     atom    5 type  1   force =     0.00061484   -0.00253259    0.00001064
     atom    6 type  1   force =    -0.00061484    0.00253259    0.00001064
     atom    7 type  3   force =     0.01377475   -0.00322194   -0.00001869
     atom    8 type  3   force =    -0.01377475    0.00322194   -0.00001869
     atom    9 type  3   force =     0.01377475    0.00322194    0.00001869
     atom   10 type  3   force =    -0.01377475   -0.00322194    0.00001869
     atom   11 type  3   force =    -0.00912236   -0.01048657    0.00000612
     atom   12 type  3   force =     0.00912236    0.01048657    0.00000612
     atom   13 type  3   force =    -0.00912236    0.01048657   -0.00000612
     atom   14 type  3   force =     0.00912236   -0.01048657   -0.00000612
     atom   15 type  3   force =    -0.00139496    0.00807025    0.01182917
     atom   16 type  3   force =     0.00139496   -0.00807025    0.01182917
     atom   17 type  3   force =    -0.00139496   -0.00807025   -0.01182917
     atom   18 type  3   force =     0.00139496    0.00807025   -0.01182917
     atom   19 type  3   force =     0.00144641   -0.00808795   -0.01183726
     atom   20 type  3   force =    -0.00144641    0.00808795   -0.01183726
     atom   21 type  3   force =     0.00144641    0.00808795    0.01183726
     atom   22 type  3   force =    -0.00144641   -0.00808795    0.01183726

     Total force =     0.057087     Total SCF correction =     0.000002


     Computing stress (Cartesian axis) and pressure

          total   stress  (Ry/bohr**3)                   (kbar)     P=      -34.50
  -0.00021880   0.00000000   0.00000000          -32.19        0.00        0.00
   0.00000000  -0.00022238   0.00000000            0.00      -32.71        0.00
   0.00000000   0.00000000  -0.00026234            0.00        0.00      -38.59

     Volume is kept fixed: isostatic pressure set to zero
     Energy error            =      6.4E-03 Ry
     Gradient error          =      1.4E-02 Ry/Bohr
     Cell gradient error     =      4.1E+00 kbar

     number of scf cycles    =   2
     number of bfgs steps    =   1

     enthalpy           old  =    -156.4559338669 Ry
     enthalpy           new  =    -156.4623138610 Ry

     CASE: enthalpy          _new < enthalpy          _old

     new trust radius        =       0.0333499289 bohr
ibrav =      8
 celldm(1) =     12.98535862
 celldm(2) =      1.02522277
 celldm(3) =      0.68970691
Input lattice vectors:
     1.00141038     0.00000000     0.00000000
     0.00000000     1.02666873     0.00000000
     0.00000000     0.00000000     0.69067967
New lattice vectors in INITIAL alat:
     1.00141038     0.00000000     0.00000000
     0.00000000     1.02666873     0.00000000
     0.00000000     0.00000000     0.69067967
New lattice vectors in NEW alat (for information only):
     1.00000000     0.00000000     0.00000000
     0.00000000     1.02522277     0.00000000
     0.00000000     0.00000000     0.68970691
Discrepancy in bohr =     0.000000    0.000000    0.000000
     new conv_thr            =            1.0E-10 Ry

     new unit-cell volume =   1548.26276 a.u.^3 (   229.42887 Ang^3 )
     density =      2.41758 g/cm^3

CELL_PARAMETERS (alat= 12.96707008)
   1.001410384   0.000000000   0.000000000
   0.000000000   1.026668731   0.000000000
   0.000000000   0.000000000   0.690679665

ATOMIC_POSITIONS (crystal)
Ba               0.5000000000        0.5000000000        0.5001020326
Ba               0.0000000000        0.0000000000        0.9998979674
B                0.6104012319        0.2398152284        0.0000611710
B                0.3895987681        0.7601847716        0.0000611710
B                0.1104012319        0.2601847716        0.4999388290
B                0.8895987681        0.7398152284        0.4999388290
H                0.4381512299        0.2911982479        0.0002235991
H                0.5618487701        0.7088017521        0.0002235991
H                0.9381512299        0.2088017521        0.4997764009
H                0.0618487701        0.7911982479        0.4997764009
H                0.7193783011        0.3804846746       -0.0000057866
H                0.2806216989        0.6195153254       -0.0000057866
H                0.2193783011        0.1195153254        0.5000057866
H                0.7806216989        0.8804846746        0.5000057866
H                0.6388026901        0.1444134945        0.7856015040
H                0.3611973099        0.8555865055        0.7856015040
H                0.1388026901        0.3555865055        0.7143984960
H                0.8611973099        0.6444134945        0.7143984960
H                0.3609940775        0.8556322124        0.2144192910
H                0.6390059225        0.1443677876        0.2144192910
H                0.8609940775        0.6443677876        0.2855807090
H                0.1390059225        0.3556322124        0.2855807090



     Writing config-only to output data dir ./pwscf.save/ :
     XML data file
     NEW-OLD atomic charge density approx. for the potential

     total cpu time spent up to now is      469.8 secs

     Self-consistent Calculation

     iteration #  1     ecut=   100.00 Ry     beta= 0.70
     Davidson diagonalization with overlap
     ethr =  1.00E-06,  avg # of iterations =  5.1

     total cpu time spent up to now is      497.5 secs

     total energy              =    -156.46522900 Ry
     estimated scf accuracy    <       0.00451674 Ry

     iteration #  2     ecut=   100.00 Ry     beta= 0.70
     Davidson diagonalization with overlap
     ethr =  9.41E-06,  avg # of iterations =  2.0

     total cpu time spent up to now is      513.9 secs

     total energy              =    -156.46660099 Ry
     estimated scf accuracy    <       0.00117378 Ry

     iteration #  3     ecut=   100.00 Ry     beta= 0.70
     Davidson diagonalization with overlap
     ethr =  2.45E-06,  avg # of iterations =  2.0

     total cpu time spent up to now is      530.4 secs

     total energy              =    -156.46675668 Ry
     estimated scf accuracy    <       0.00001604 Ry

     iteration #  4     ecut=   100.00 Ry     beta= 0.70
     Davidson diagonalization with overlap
     ethr =  3.34E-08,  avg # of iterations =  3.0

     total cpu time spent up to now is      549.6 secs

     total energy              =    -156.46676449 Ry
     estimated scf accuracy    <       0.00000927 Ry

     iteration #  5     ecut=   100.00 Ry     beta= 0.70
     Davidson diagonalization with overlap
     ethr =  1.93E-08,  avg # of iterations =  2.0

     total cpu time spent up to now is      566.1 secs

     total energy              =    -156.46676521 Ry
     estimated scf accuracy    <       0.00000052 Ry

     iteration #  6     ecut=   100.00 Ry     beta= 0.70
     Davidson diagonalization with overlap
     ethr =  1.09E-09,  avg # of iterations =  3.0

     total cpu time spent up to now is      583.7 secs

     total energy              =    -156.46676545 Ry
     estimated scf accuracy    <       0.00000018 Ry

     iteration #  7     ecut=   100.00 Ry     beta= 0.70
     Davidson diagonalization with overlap
     ethr =  3.85E-10,  avg # of iterations =  2.0

     total cpu time spent up to now is      600.1 secs

     total energy              =    -156.46676548 Ry
     estimated scf accuracy    <          4.0E-09 Ry

     iteration #  8     ecut=   100.00 Ry     beta= 0.70
     Davidson diagonalization with overlap
     ethr =  8.24E-12,  avg # of iterations =  5.9

     total cpu time spent up to now is      626.9 secs

     total energy              =    -156.46676549 Ry
     estimated scf accuracy    <          2.5E-10 Ry

     iteration #  9     ecut=   100.00 Ry     beta= 0.70
     Davidson diagonalization with overlap
     ethr =  5.13E-13,  avg # of iterations =  4.5

     total cpu time spent up to now is      646.6 secs

     total energy              =    -156.46676549 Ry
     estimated scf accuracy    <          2.4E-10 Ry

     iteration # 10     ecut=   100.00 Ry     beta= 0.70
     Davidson diagonalization with overlap
     ethr =  5.04E-13,  avg # of iterations =  1.0

     total cpu time spent up to now is      659.6 secs

     total energy              =    -156.46676549 Ry
     estimated scf accuracy    <          2.6E-10 Ry

     iteration # 11     ecut=   100.00 Ry     beta= 0.70
     Davidson diagonalization with overlap
     ethr =  5.04E-13,  avg # of iterations =  2.0

     total cpu time spent up to now is      674.1 secs

     total energy              =    -156.46676549 Ry
     estimated scf accuracy    <          3.0E-10 Ry

     iteration # 12     ecut=   100.00 Ry     beta= 0.70
     Davidson diagonalization with overlap
     ethr =  5.04E-13,  avg # of iterations =  5.1

     total cpu time spent up to now is      696.0 secs

     total energy              =    -156.46676549 Ry
     estimated scf accuracy    <          2.4E-09 Ry

     iteration # 13     ecut=   100.00 Ry     beta= 0.70
     Davidson diagonalization with overlap
     ethr =  5.04E-13,  avg # of iterations =  5.3

     total cpu time spent up to now is      718.1 secs

     End of self-consistent calculation

          k = 0.0000 0.0000 0.0000 ( 26171 PWs)   bands (ev):

   -24.6286 -24.6228 -10.0378  -9.9750  -9.8340  -9.8071  -9.7709  -9.7261
    -6.3010  -5.4617  -4.9496  -4.7889  -1.9605  -1.1313  -1.1299  -0.7768
    -0.4151  -0.3968  -0.3882  -0.2455  -0.0947   0.2401   0.2665   0.2983

          k = 0.0000 0.0000 0.3620 ( 26163 PWs)   bands (ev):

   -24.6231 -24.6190  -9.9662  -9.9606  -9.9401  -9.9249  -9.8212  -9.8069
    -5.8907  -5.2627  -5.0746  -4.9670  -1.6263  -1.3983  -0.9419  -0.9217
    -0.7988  -0.7016  -0.3787  -0.1289   0.0763   0.0809   0.1560   0.2877

          k = 0.0000 0.0000-0.7239 ( 26136 PWs)   bands (ev):

   -24.6165 -24.6164 -10.1289 -10.1288  -9.8577  -9.8576  -9.8323  -9.8322
    -5.2813  -5.2808  -5.1753  -5.1748  -1.3897  -1.3893  -1.3703  -1.3688
    -0.4424  -0.4419  -0.4092  -0.4075   0.1066   0.1068   0.1251   0.1256

          k = 0.0000 0.2435 0.0000 ( 26156 PWs)   bands (ev):

   -24.6277 -24.6236 -10.0153  -9.9537  -9.8688  -9.8316  -9.7642  -9.7325
    -6.1357  -5.3918  -5.1777  -4.8935  -1.6553  -1.2927  -1.2039  -0.5024
    -0.5002  -0.4969  -0.2088  -0.1078  -0.0427  -0.0201   0.1637   0.2411

          k = 0.0000 0.2435 0.3620 ( 26145 PWs)   bands (ev):

   -24.6225 -24.6196  -9.9949  -9.9630  -9.9121  -9.9060  -9.8261  -9.8216
    -5.7957  -5.3197  -5.1167  -5.0055  -1.4548  -1.4206  -1.2091  -0.7176
    -0.6858  -0.5157  -0.4916  -0.0842   0.0057   0.0267   0.1368   0.1879

          k = 0.0000 0.2435-0.7239 ( 26170 PWs)   bands (ev):

   -24.6164 -24.6164 -10.1391 -10.1390  -9.8450  -9.8450  -9.8317  -9.8317
    -5.4824  -5.4823  -4.9678  -4.9678  -1.4833  -1.4826  -1.2315  -1.2308
    -0.3792  -0.3791  -0.3712  -0.3696  -0.0335  -0.0334   0.1186   0.1189

          k = 0.0000-0.4870 0.0000 ( 26122 PWs)   bands (ev):

   -24.6257 -24.6257  -9.9557  -9.9557  -9.8868  -9.8868  -9.7482  -9.7482
    -5.7143  -5.7143  -5.1283  -5.1283  -1.3985  -1.3985  -0.7907  -0.7907
    -0.5642  -0.5642  -0.1317  -0.1317   0.0054   0.0054   0.1188   0.1188

          k = 0.0000-0.4870 0.3620 ( 26152 PWs)   bands (ev):

   -24.6211 -24.6211  -9.9922  -9.9922  -9.8780  -9.8780  -9.8435  -9.8435
    -5.5568  -5.5568  -5.0825  -5.0825  -1.3993  -1.3993  -1.0147  -1.0147
    -0.4816  -0.4816  -0.2151  -0.2151  -0.0824  -0.0824   0.1180   0.1180

          k = 0.0000-0.4870-0.7239 ( 26144 PWs)   bands (ev):

   -24.6164 -24.6164 -10.1484 -10.1484  -9.8364  -9.8364  -9.8280  -9.8280
    -5.5825  -5.5825  -4.8616  -4.8616  -1.5614  -1.5614  -1.0310  -1.0310
    -0.4367  -0.4367  -0.2901  -0.2901  -0.2090  -0.2090   0.1516   0.1516

          k = 0.2496 0.0000 0.0000 ( 26139 PWs)   bands (ev):

   -24.6277 -24.6236 -10.0095  -9.9602  -9.8640  -9.8412  -9.7642  -9.7325
    -6.1438  -5.5090  -4.9730  -4.9121  -1.7894  -1.0385  -1.0175  -0.8828
    -0.3897  -0.3579  -0.2852  -0.2375  -0.1355  -0.1331   0.2111   0.2483

          k = 0.2496 0.0000 0.3620 ( 26145 PWs)   bands (ev):

   -24.6225 -24.6196  -9.9871  -9.9719  -9.9336  -9.8882  -9.8377  -9.8124
    -5.7643  -5.2652  -5.0954  -5.0739  -1.5909  -1.3800  -1.2134  -0.7816
    -0.7449  -0.5201  -0.3069  -0.1799  -0.0701   0.0610   0.2243   0.2482

          k = 0.2496 0.0000-0.7239 ( 26124 PWs)   bands (ev):

   -24.6164 -24.6164 -10.1422 -10.1421  -9.8489  -9.8488  -9.8294  -9.8293
    -5.3114  -5.3111  -5.1226  -5.1224  -1.8035  -1.8031  -1.0031  -1.0027
    -0.4507  -0.4504  -0.1805  -0.1790  -0.0559  -0.0557   0.1630   0.1633

          k = 0.2496 0.2435 0.0000 ( 26141 PWs)   bands (ev):

   -24.6271 -24.6242 -10.0279  -9.9436  -9.8981  -9.8118  -9.7594  -9.7370
    -6.0183  -5.4746  -5.1591  -4.9570  -1.5429  -1.2539  -1.0337  -0.6138
    -0.5330  -0.4963  -0.2447  -0.0995  -0.0917  -0.0152   0.0451   0.1779

          k = 0.2496 0.2435 0.3620 ( 26126 PWs)   bands (ev):

   -24.6221 -24.6200  -9.9876  -9.9600  -9.9588  -9.8767  -9.8420  -9.8089
    -5.6842  -5.2806  -5.1853  -5.0762  -1.5557  -1.3219  -1.2707  -0.7747
    -0.6078  -0.4572  -0.3624  -0.1669  -0.0813   0.0241   0.1548   0.2303

          k = 0.2496 0.2435-0.7239 ( 26170 PWs)   bands (ev):

   -24.6164 -24.6164 -10.1477 -10.1305  -9.8622  -9.8371  -9.8333  -9.8303
    -5.4838  -5.3526  -5.0771  -4.9431  -1.7805  -1.7174  -1.0580  -0.9922
    -0.4882  -0.4845  -0.1981  -0.1648  -0.0258  -0.0053   0.1185   0.1480

          k = 0.2496-0.4870 0.0000 ( 26140 PWs)   bands (ev):

   -24.6257 -24.6257 -10.0081 -10.0081  -9.8358  -9.8358  -9.7480  -9.7480
    -5.6995  -5.6995  -5.1381  -5.1381  -1.3077  -1.3077  -0.8031  -0.8031
    -0.5917  -0.5917  -0.1775  -0.1775   0.0317   0.0317   0.0488   0.0488

          k = 0.2496-0.4870 0.3620 ( 26150 PWs)   bands (ev):

   -24.6210 -24.6210  -9.9847  -9.9847  -9.9157  -9.9157  -9.8180  -9.8180
    -5.4826  -5.4826  -5.1440  -5.1440  -1.4688  -1.4688  -0.9829  -0.9829
    -0.4752  -0.4752  -0.1927  -0.1927  -0.0763  -0.0763   0.1328   0.1328

          k = 0.2496-0.4870-0.7239 ( 26160 PWs)   bands (ev):

   -24.6164 -24.6164 -10.1368 -10.1368  -9.8503  -9.8503  -9.8337  -9.8337
    -5.4999  -5.4999  -4.9228  -4.9228  -1.6840  -1.6840  -1.0926  -1.0926
    -0.3893  -0.3893  -0.2663  -0.2663  -0.0298  -0.0298   0.1418   0.1418

          k =-0.4993 0.0000 0.0000 ( 26218 PWs)   bands (ev):

   -24.6257 -24.6257  -9.9435  -9.9435  -9.9044  -9.9044  -9.7482  -9.7482
    -5.7805  -5.7805  -5.0044  -5.0044  -1.4098  -1.4098  -0.6968  -0.6968
    -0.3556  -0.3556  -0.3513  -0.3513  -0.2452  -0.2452   0.1172   0.1172

          k =-0.4993 0.0000 0.3620 ( 26122 PWs)   bands (ev):

   -24.6210 -24.6210  -9.9938  -9.9938  -9.8921  -9.8921  -9.8351  -9.8351
    -5.4663  -5.4663  -5.1350  -5.1350  -1.5113  -1.5113  -1.0290  -1.0290
    -0.4890  -0.4890  -0.3147  -0.3147   0.0283   0.0283   0.2104   0.2104

          k =-0.4993 0.0000-0.7239 ( 26104 PWs)   bands (ev):

   -24.6164 -24.6164 -10.1545 -10.1545  -9.8427  -9.8427  -9.8246  -9.8246
    -5.3324  -5.3324  -5.0778  -5.0778  -1.9935  -1.9935  -0.7681  -0.7681
    -0.4641  -0.4641  -0.2932  -0.2932   0.1083   0.1083   0.1352   0.1352

          k =-0.4993 0.2435 0.0000 ( 26188 PWs)   bands (ev):

   -24.6256 -24.6256 -10.0071 -10.0071  -9.8395  -9.8395  -9.7480  -9.7480
    -5.7376  -5.7376  -5.0712  -5.0712  -1.3219  -1.3219  -0.7036  -0.7036
    -0.5297  -0.5297  -0.3810  -0.3810  -0.0492  -0.0492   0.0971   0.0971

          k =-0.4993 0.2435 0.3620 ( 26152 PWs)   bands (ev):

   -24.6210 -24.6210  -9.9857  -9.9857  -9.9194  -9.9194  -9.8170  -9.8170
    -5.4239  -5.4239  -5.1836  -5.1836  -1.5161  -1.5161  -1.0138  -1.0138
    -0.4532  -0.4532  -0.2666  -0.2666   0.0178   0.0178   0.1525   0.1525

          k =-0.4993 0.2435-0.7239 ( 26140 PWs)   bands (ev):

   -24.6164 -24.6164 -10.1400 -10.1400  -9.8521  -9.8521  -9.8331  -9.8331
    -5.3654  -5.3654  -5.0402  -5.0402  -1.9080  -1.9080  -0.9499  -0.9499
    -0.4186  -0.4186  -0.2387  -0.2387   0.0640   0.0640   0.1836   0.1836

          k =-0.4993-0.4870 0.0000 ( 26116 PWs)   bands (ev):

   -24.6256 -24.6256 -10.0396 -10.0396  -9.8058  -9.8058  -9.7478  -9.7478
    -5.6854  -5.6854  -5.1468  -5.1468  -1.1943  -1.1943  -0.8389  -0.8389
    -0.6170  -0.6170  -0.1961  -0.1961  -0.0481  -0.0481   0.0559   0.0559

          k =-0.4993-0.4870 0.3620 ( 26144 PWs)   bands (ev):

   -24.6210 -24.6210  -9.9709  -9.9709  -9.9468  -9.9468  -9.8055  -9.8055
    -5.3477  -5.3477  -5.2657  -5.2657  -1.5010  -1.5010  -1.0630  -1.0630
    -0.3092  -0.3092  -0.1904  -0.1904  -0.0521  -0.0521   0.0612   0.0612

          k =-0.4993-0.4870-0.7239 ( 26192 PWs)   bands (ev):

   -24.6164 -24.6164 -10.1239 -10.1239  -9.8672  -9.8672  -9.8377  -9.8377
    -5.3923  -5.3923  -5.0085  -5.0085  -1.7720  -1.7720  -1.2070  -1.2070
    -0.2230  -0.2230  -0.1844  -0.1844  -0.0372  -0.0372   0.1601   0.1601

     highest occupied level (ev):     0.2983

!    total energy              =    -156.46676549 Ry
     estimated scf accuracy    <          1.6E-11 Ry

     The total energy is the sum of the following terms:
     one-electron contribution =     -27.51272382 Ry
     hartree contribution      =      27.12492191 Ry
     xc contribution           =     -48.93972144 Ry
     ewald contribution        =    -107.13924215 Ry

     convergence has been achieved in  13 iterations

     Forces acting on atoms (cartesian axes, Ry/au):

     atom    1 type  2   force =     0.00000000    0.00000000    0.00000455
     atom    2 type  2   force =     0.00000000    0.00000000   -0.00000455
     atom    3 type  1   force =     0.00057910    0.00178791   -0.00000813
     atom    4 type  1   force =    -0.00057910   -0.00178791   -0.00000813
     atom    5 type  1   force =     0.00057910   -0.00178791    0.00000813
     atom    6 type  1   force =    -0.00057910    0.00178791    0.00000813
     atom    7 type  3   force =     0.00265699    0.00010329   -0.00001259
     atom    8 type  3   force =    -0.00265699   -0.00010329   -0.00001259
     atom    9 type  3   force =     0.00265699   -0.00010329    0.00001259
     atom   10 type  3   force =    -0.00265699    0.00010329    0.00001259
     atom   11 type  3   force =    -0.00142069   -0.00022281    0.00000159
     atom   12 type  3   force =     0.00142069    0.00022281    0.00000159
     atom   13 type  3   force =    -0.00142069    0.00022281   -0.00000159
     atom   14 type  3   force =     0.00142069   -0.00022281   -0.00000159
     atom   15 type  3   force =     0.00044928    0.00176127    0.00142073
     atom   16 type  3   force =    -0.00044928   -0.00176127    0.00142073
     atom   17 type  3   force =     0.00044928   -0.00176127   -0.00142073
     atom   18 type  3   force =    -0.00044928    0.00176127   -0.00142073
     atom   19 type  3   force =    -0.00041660   -0.00177156   -0.00143058
     atom   20 type  3   force =     0.00041660    0.00177156   -0.00143058
     atom   21 type  3   force =    -0.00041660    0.00177156    0.00143058
     atom   22 type  3   force =     0.00041660   -0.00177156    0.00143058

     Total force =     0.009665     Total SCF correction =     0.000001


     Computing stress (Cartesian axis) and pressure

          total   stress  (Ry/bohr**3)                   (kbar)     P=      -20.51
  -0.00012900   0.00000000   0.00000000          -18.98        0.00        0.00
   0.00000000  -0.00013059   0.00000000            0.00      -19.21        0.00
   0.00000000   0.00000000  -0.00015860            0.00        0.00      -23.33

     Volume is kept fixed: isostatic pressure set to zero
     Energy error            =      4.5E-03 Ry
     Gradient error          =      2.7E-03 Ry/Bohr
     Cell gradient error     =      2.8E+00 kbar

     number of scf cycles    =   3
     number of bfgs steps    =   2

     enthalpy           old  =    -156.4623138610 Ry
     enthalpy           new  =    -156.4667654861 Ry

     CASE: enthalpy          _new < enthalpy          _old

     new trust radius        =       0.0066480567 bohr
ibrav =      8
 celldm(1) =     12.99062041
 celldm(2) =      1.02515201
 celldm(3) =      0.68891672
Input lattice vectors:
     1.00181616     0.00000000     0.00000000
     0.00000000     1.02701385     0.00000000
     0.00000000     0.00000000     0.69016790
New lattice vectors in INITIAL alat:
     1.00181616     0.00000000     0.00000000
     0.00000000     1.02701385     0.00000000
     0.00000000     0.00000000     0.69016790
New lattice vectors in NEW alat (for information only):
     1.00000000     0.00000000     0.00000000
     0.00000000     1.02515201     0.00000000
     0.00000000     0.00000000     0.68891672
Discrepancy in bohr =     0.000000    0.000000    0.000000
     new conv_thr            =            1.0E-10 Ry

     new unit-cell volume =   1548.26276 a.u.^3 (   229.42887 Ang^3 )
     density =      2.41758 g/cm^3

CELL_PARAMETERS (alat= 12.96707008)
   1.001816165   0.000000000   0.000000000
   0.000000000   1.027013853   0.000000000
   0.000000000   0.000000000   0.690167904

ATOMIC_POSITIONS (crystal)
Ba               0.5000000000        0.5000000000        0.5001028308
Ba               0.0000000000        0.0000000000        0.9998971692
B                0.6104655650        0.2400208125        0.0000598083
B                0.3895344350        0.7599791875        0.0000598083
B                0.1104655650        0.2599791875        0.4999401917
B                0.8895344350        0.7400208125        0.4999401917
H                0.4386604024        0.2911461772        0.0002214320
H                0.5613395976        0.7088538228        0.0002214320
H                0.9386604024        0.2088538228        0.4997785680
H                0.0613395976        0.7911461772        0.4997785680
H                0.7190719774        0.3802659907       -0.0000054068
H                0.2809280226        0.6197340093       -0.0000054068
H                0.2190719774        0.1197340093        0.5000054068
H                0.7809280226        0.8802659907        0.5000054068
H                0.6388162073        0.1447224864        0.7861193414
H                0.3611837927        0.8552775136        0.7861193414
H                0.1388162073        0.3552775136        0.7138806586
H                0.8611837927        0.6447224864        0.7138806586
H                0.3609845239        0.8553219761        0.2138999455
H                0.6390154761        0.1446780239        0.2138999455
H                0.8609845239        0.6446780239        0.2861000545
H                0.1390154761        0.3553219761        0.2861000545



     Writing config-only to output data dir ./pwscf.save/ :
     XML data file
     NEW-OLD atomic charge density approx. for the potential

     total cpu time spent up to now is      751.3 secs

     Self-consistent Calculation

     iteration #  1     ecut=   100.00 Ry     beta= 0.70
     Davidson diagonalization with overlap
     ethr =  1.00E-06,  avg # of iterations =  3.0

     total cpu time spent up to now is      772.0 secs

     total energy              =    -156.46688176 Ry
     estimated scf accuracy    <       0.00012691 Ry

     iteration #  2     ecut=   100.00 Ry     beta= 0.70
     Davidson diagonalization with overlap
     ethr =  2.64E-07,  avg # of iterations =  2.0

     total cpu time spent up to now is      788.4 secs

     total energy              =    -156.46691419 Ry
     estimated scf accuracy    <       0.00001947 Ry

     iteration #  3     ecut=   100.00 Ry     beta= 0.70
     Davidson diagonalization with overlap
     ethr =  4.06E-08,  avg # of iterations =  2.0

     total cpu time spent up to now is      804.9 secs

     total energy              =    -156.46691707 Ry
     estimated scf accuracy    <       0.00000020 Ry

     iteration #  4     ecut=   100.00 Ry     beta= 0.70
     Davidson diagonalization with overlap
     ethr =  4.21E-10,  avg # of iterations =  3.8

     total cpu time spent up to now is      826.1 secs

     total energy              =    -156.46691717 Ry
     estimated scf accuracy    <       0.00000013 Ry

     iteration #  5     ecut=   100.00 Ry     beta= 0.70
     Davidson diagonalization with overlap
     ethr =  2.73E-10,  avg # of iterations =  2.0

     total cpu time spent up to now is      842.3 secs

     total energy              =    -156.46691720 Ry
     estimated scf accuracy    <          8.4E-10 Ry

     iteration #  6     ecut=   100.00 Ry     beta= 0.70
     Davidson diagonalization with overlap
     ethr =  1.74E-12,  avg # of iterations =  8.3

     total cpu time spent up to now is      877.1 secs

     total energy              =    -156.46691720 Ry
     estimated scf accuracy    <          6.3E-10 Ry

     iteration #  7     ecut=   100.00 Ry     beta= 0.70
     Davidson diagonalization with overlap
     ethr =  1.32E-12,  avg # of iterations =  2.0

     total cpu time spent up to now is      893.1 secs

     End of self-consistent calculation

          k = 0.0000 0.0000 0.0000 ( 26171 PWs)   bands (ev):

   -24.6328 -24.6270 -10.0426  -9.9795  -9.8384  -9.8113  -9.7747  -9.7301
    -6.3125  -5.4792  -4.9663  -4.8070  -1.9636  -1.1380  -1.1361  -0.7895
    -0.4202  -0.4057  -0.3891  -0.2506  -0.0972   0.2271   0.2526   0.2816

          k = 0.0000 0.0000 0.3622 ( 26163 PWs)   bands (ev):

   -24.6273 -24.6232  -9.9706  -9.9659  -9.9455  -9.9291  -9.8254  -9.8110
    -5.9017  -5.2784  -5.0925  -4.9859  -1.6272  -1.4011  -0.9455  -0.9299
    -0.8040  -0.7055  -0.3866  -0.1381   0.0638   0.0673   0.1461   0.2731

          k = 0.0000 0.0000-0.7245 ( 26136 PWs)   bands (ev):

   -24.6206 -24.6206 -10.1354 -10.1353  -9.8614  -9.8613  -9.8363  -9.8363
    -5.2939  -5.2934  -5.1947  -5.1942  -1.3889  -1.3885  -1.3721  -1.3707
    -0.4523  -0.4518  -0.4183  -0.4166   0.0936   0.0937   0.1130   0.1133

          k = 0.0000 0.2434 0.0000 ( 26156 PWs)   bands (ev):

   -24.6319 -24.6279 -10.0201  -9.9584  -9.8731  -9.8358  -9.7680  -9.7365
    -6.1477  -5.4099  -5.1923  -4.9114  -1.6605  -1.2977  -1.2107  -0.5099
    -0.5043  -0.5038  -0.2203  -0.1122  -0.0569  -0.0239   0.1509   0.2272

          k = 0.0000 0.2434 0.3622 ( 26145 PWs)   bands (ev):

   -24.6267 -24.6238  -9.9997  -9.9681  -9.9169  -9.9103  -9.8304  -9.8257
    -5.8074  -5.3354  -5.1336  -5.0239  -1.4566  -1.4232  -1.2136  -0.7211
    -0.6916  -0.5258  -0.4979  -0.0939  -0.0063   0.0131   0.1264   0.1748

          k = 0.0000 0.2434-0.7245 ( 26170 PWs)   bands (ev):

   -24.6206 -24.6206 -10.1455 -10.1454  -9.8488  -9.8488  -9.8358  -9.8358
    -5.4980  -5.4979  -4.9840  -4.9839  -1.4849  -1.4843  -1.2312  -1.2305
    -0.3901  -0.3901  -0.3802  -0.3785  -0.0436  -0.0436   0.1044   0.1046

          k = 0.0000-0.4868 0.0000 ( 26122 PWs)   bands (ev):

   -24.6299 -24.6299  -9.9606  -9.9606  -9.8908  -9.8908  -9.7521  -9.7521
    -5.7280  -5.7280  -5.1453  -5.1453  -1.4035  -1.4035  -0.8007  -0.8007
    -0.5666  -0.5666  -0.1458  -0.1458   0.0009   0.0009   0.1062   0.1062

          k = 0.0000-0.4868 0.3622 ( 26152 PWs)   bands (ev):

   -24.6252 -24.6252  -9.9972  -9.9972  -9.8827  -9.8827  -9.8476  -9.8476
    -5.5704  -5.5704  -5.0998  -5.0998  -1.4017  -1.4017  -1.0194  -1.0194
    -0.4892  -0.4892  -0.2223  -0.2223  -0.0965  -0.0965   0.1066   0.1066

          k = 0.0000-0.4868-0.7245 ( 26144 PWs)   bands (ev):

   -24.6206 -24.6206 -10.1547 -10.1547  -9.8402  -9.8402  -9.8321  -9.8321
    -5.5984  -5.5984  -4.8773  -4.8773  -1.5630  -1.5630  -1.0305  -1.0305
    -0.4481  -0.4481  -0.2990  -0.2990  -0.2197  -0.2197   0.1376   0.1376

          k = 0.2495 0.0000 0.0000 ( 26139 PWs)   bands (ev):

   -24.6319 -24.6279 -10.0144  -9.9647  -9.8684  -9.8454  -9.7680  -9.7365
    -6.1560  -5.5257  -4.9899  -4.9294  -1.7932  -1.0438  -1.0261  -0.8922
    -0.3907  -0.3630  -0.2888  -0.2500  -0.1439  -0.1392   0.1969   0.2317

          k = 0.2495 0.0000 0.3622 ( 26145 PWs)   bands (ev):

   -24.6267 -24.6238  -9.9920  -9.9769  -9.9383  -9.8928  -9.8417  -9.8166
    -5.7761  -5.2807  -5.1132  -5.0921  -1.5907  -1.3841  -1.2146  -0.7881
    -0.7536  -0.5260  -0.3166  -0.1909  -0.0787   0.0502   0.2095   0.2363

          k = 0.2495 0.0000-0.7245 ( 26124 PWs)   bands (ev):

   -24.6206 -24.6206 -10.1485 -10.1484  -9.8526  -9.8526  -9.8335  -9.8334
    -5.3282  -5.3278  -5.1380  -5.1377  -1.8024  -1.8020  -1.0053  -1.0050
    -0.4608  -0.4605  -0.1903  -0.1888  -0.0679  -0.0678   0.1504   0.1507

          k = 0.2495 0.2434 0.0000 ( 26141 PWs)   bands (ev):

   -24.6313 -24.6284 -10.0326  -9.9485  -9.9021  -9.8161  -9.7632  -9.7409
    -6.0312  -5.4919  -5.1743  -4.9738  -1.5487  -1.2599  -1.0412  -0.6235
    -0.5353  -0.4989  -0.2571  -0.1051  -0.1039  -0.0197   0.0317   0.1640

          k = 0.2495 0.2434 0.3622 ( 26126 PWs)   bands (ev):

   -24.6263 -24.6242  -9.9926  -9.9650  -9.9632  -9.8814  -9.8461  -9.8129
    -5.6967  -5.2966  -5.2017  -5.0940  -1.5561  -1.3236  -1.2755  -0.7812
    -0.6161  -0.4636  -0.3714  -0.1760  -0.0936   0.0127   0.1431   0.2178

          k = 0.2495 0.2434-0.7245 ( 26170 PWs)   bands (ev):

   -24.6206 -24.6206 -10.1541 -10.1369  -9.8659  -9.8410  -9.8373  -9.8344
    -5.5003  -5.3688  -5.0930  -4.9586  -1.7799  -1.7164  -1.0605  -0.9940
    -0.4988  -0.4946  -0.2062  -0.1742  -0.0402  -0.0167   0.1085   0.1328

          k = 0.2495-0.4868 0.0000 ( 26140 PWs)   bands (ev):

   -24.6299 -24.6299 -10.0128 -10.0128  -9.8401  -9.8401  -9.7519  -9.7519
    -5.7144  -5.7144  -5.1539  -5.1539  -1.3141  -1.3141  -0.8127  -0.8127
    -0.5938  -0.5938  -0.1898  -0.1898   0.0269   0.0269   0.0357   0.0357

          k = 0.2495-0.4868 0.3622 ( 26150 PWs)   bands (ev):

   -24.6252 -24.6252  -9.9896  -9.9896  -9.9205  -9.9205  -9.8221  -9.8221
    -5.4968  -5.4968  -5.1608  -5.1608  -1.4701  -1.4701  -0.9892  -0.9892
    -0.4822  -0.4822  -0.2020  -0.2020  -0.0888  -0.0888   0.1216   0.1216

          k = 0.2495-0.4868-0.7245 ( 26160 PWs)   bands (ev):

   -24.6206 -24.6206 -10.1432 -10.1432  -9.8541  -9.8541  -9.8378  -9.8378
    -5.5162  -5.5162  -4.9384  -4.9384  -1.6837  -1.6837  -1.0946  -1.0946
    -0.3999  -0.3999  -0.2755  -0.2755  -0.0419  -0.0419   0.1290   0.1290

          k =-0.4991 0.0000 0.0000 ( 26218 PWs)   bands (ev):

   -24.6299 -24.6299  -9.9485  -9.9485  -9.9083  -9.9083  -9.7521  -9.7521
    -5.7947  -5.7947  -5.0214  -5.0214  -1.4152  -1.4152  -0.7040  -0.7040
    -0.3678  -0.3678  -0.3527  -0.3527  -0.2504  -0.2504   0.1015   0.1015

          k =-0.4991 0.0000 0.3622 ( 26122 PWs)   bands (ev):

   -24.6252 -24.6252  -9.9988  -9.9988  -9.8966  -9.8966  -9.8393  -9.8393
    -5.4801  -5.4801  -5.1527  -5.1527  -1.5111  -1.5111  -1.0352  -1.0352
    -0.4975  -0.4975  -0.3244  -0.3244   0.0193   0.0193   0.1966   0.1966

          k =-0.4991 0.0000-0.7245 ( 26104 PWs)   bands (ev):

   -24.6206 -24.6206 -10.1607 -10.1607  -9.8465  -9.8465  -9.8287  -9.8287
    -5.3509  -5.3509  -5.0916  -5.0916  -1.9916  -1.9916  -0.7711  -0.7711
    -0.4741  -0.4741  -0.3037  -0.3037   0.0983   0.0983   0.1208   0.1208

          k =-0.4991 0.2434 0.0000 ( 26188 PWs)   bands (ev):

   -24.6299 -24.6299 -10.0117 -10.0117  -9.8438  -9.8438  -9.7519  -9.7519
    -5.7526  -5.7526  -5.0871  -5.0871  -1.3286  -1.3286  -0.7118  -0.7118
    -0.5318  -0.5318  -0.3920  -0.3920  -0.0539  -0.0539   0.0822   0.0822

          k =-0.4991 0.2434 0.3622 ( 26152 PWs)   bands (ev):

   -24.6252 -24.6252  -9.9905  -9.9905  -9.9241  -9.9241  -9.8211  -9.8211
    -5.4382  -5.4382  -5.2006  -5.2006  -1.5163  -1.5163  -1.0200  -1.0200
    -0.4624  -0.4624  -0.2757  -0.2757   0.0081   0.0081   0.1397   0.1397

          k =-0.4991 0.2434-0.7245 ( 26140 PWs)   bands (ev):

   -24.6206 -24.6206 -10.1464 -10.1464  -9.8559  -9.8559  -9.8372  -9.8372
    -5.3830  -5.3830  -5.0549  -5.0549  -1.9063  -1.9063  -0.9528  -0.9528
    -0.4292  -0.4292  -0.2486  -0.2486   0.0511   0.0511   0.1719   0.1719

          k =-0.4991-0.4868 0.0000 ( 26116 PWs)   bands (ev):

   -24.6299 -24.6299 -10.0441 -10.0441  -9.8101  -9.8101  -9.7517  -9.7517
    -5.7015  -5.7015  -5.1612  -5.1612  -1.2034  -1.2034  -0.8459  -0.8459
    -0.6189  -0.6189  -0.2092  -0.2092  -0.0601  -0.0601   0.0509   0.0509

          k =-0.4991-0.4868 0.3622 ( 26144 PWs)   bands (ev):

   -24.6252 -24.6252  -9.9751  -9.9751  -9.9522  -9.9522  -9.8096  -9.8096
    -5.3631  -5.3631  -5.2814  -5.2814  -1.5016  -1.5016  -1.0690  -1.0690
    -0.3175  -0.3175  -0.2021  -0.2021  -0.0639  -0.0639   0.0524   0.0524

          k =-0.4991-0.4868-0.7245 ( 26192 PWs)   bands (ev):

   -24.6205 -24.6205 -10.1304 -10.1304  -9.8709  -9.8709  -9.8417  -9.8417
    -5.4094  -5.4094  -5.0237  -5.0237  -1.7706  -1.7706  -1.2093  -1.2093
    -0.2325  -0.2325  -0.1972  -0.1972  -0.0504  -0.0504   0.1500   0.1500

     highest occupied level (ev):     0.2816

!    total energy              =    -156.46691720 Ry
     estimated scf accuracy    <          2.8E-11 Ry

     The total energy is the sum of the following terms:
     one-electron contribution =     -27.72099653 Ry
     hartree contribution      =      27.22940403 Ry
     xc contribution           =     -48.96251469 Ry
     ewald contribution        =    -107.01281001 Ry

     convergence has been achieved in   7 iterations

     Forces acting on atoms (cartesian axes, Ry/au):

     atom    1 type  2   force =     0.00000000    0.00000000    0.00000342
     atom    2 type  2   force =     0.00000000    0.00000000   -0.00000342
     atom    3 type  1   force =     0.00059136    0.00133616   -0.00000786
     atom    4 type  1   force =    -0.00059136   -0.00133616   -0.00000786
     atom    5 type  1   force =     0.00059136   -0.00133616    0.00000786
     atom    6 type  1   force =    -0.00059136    0.00133616    0.00000786
     atom    7 type  3   force =     0.00056649    0.00071765   -0.00001202
     atom    8 type  3   force =    -0.00056649   -0.00071765   -0.00001202
     atom    9 type  3   force =     0.00056649   -0.00071765    0.00001202
     atom   10 type  3   force =    -0.00056649    0.00071765    0.00001202
     atom   11 type  3   force =     0.00005773    0.00171658    0.00000061
     atom   12 type  3   force =    -0.00005773   -0.00171658    0.00000061
     atom   13 type  3   force =     0.00005773   -0.00171658   -0.00000061
     atom   14 type  3   force =    -0.00005773    0.00171658   -0.00000061
     atom   15 type  3   force =     0.00077438    0.00070223   -0.00054277
     atom   16 type  3   force =    -0.00077438   -0.00070223   -0.00054277
     atom   17 type  3   force =     0.00077438   -0.00070223    0.00054277
     atom   18 type  3   force =    -0.00077438    0.00070223    0.00054277
     atom   19 type  3   force =    -0.00074632   -0.00070983    0.00053394
     atom   20 type  3   force =     0.00074632    0.00070983    0.00053394
     atom   21 type  3   force =    -0.00074632    0.00070983   -0.00053394
     atom   22 type  3   force =     0.00074632   -0.00070983   -0.00053394

     Total force =     0.005884     Total SCF correction =     0.000003


     Computing stress (Cartesian axis) and pressure

          total   stress  (Ry/bohr**3)                   (kbar)     P=      -17.87
  -0.00011225   0.00000000   0.00000000          -16.51        0.00        0.00
   0.00000000  -0.00011421   0.00000000            0.00      -16.80        0.00
   0.00000000   0.00000000  -0.00013791            0.00        0.00      -20.29

     Volume is kept fixed: isostatic pressure set to zero
     Energy error            =      1.5E-04 Ry
     Gradient error          =      1.7E-03 Ry/Bohr
     Cell gradient error     =      2.4E+00 kbar

     number of scf cycles    =   4
     number of bfgs steps    =   3

     enthalpy           old  =    -156.4667654861 Ry
     enthalpy           new  =    -156.4669172016 Ry

     CASE: enthalpy          _new < enthalpy          _old

     new trust radius        =       0.0052084626 bohr
ibrav =      8
 celldm(1) =     12.99539218
 celldm(2) =      1.02507626
 celldm(3) =      0.68820896
Input lattice vectors:
     1.00218416     0.00000000     0.00000000
     0.00000000     1.02731519     0.00000000
     0.00000000     0.00000000     0.68971212
New lattice vectors in INITIAL alat:
     1.00218416     0.00000000     0.00000000
     0.00000000     1.02731519     0.00000000
     0.00000000     0.00000000     0.68971212
New lattice vectors in NEW alat (for information only):
     1.00000000     0.00000000     0.00000000
     0.00000000     1.02507626     0.00000000
     0.00000000     0.00000000     0.68820896
Discrepancy in bohr =     0.000000    0.000000    0.000000
     new conv_thr            =            1.5E-11 Ry

     new unit-cell volume =   1548.26276 a.u.^3 (   229.42887 Ang^3 )
     density =      2.41758 g/cm^3

CELL_PARAMETERS (alat= 12.96707008)
   1.002184156   0.000000000   0.000000000
   0.000000000   1.027315186   0.000000000
   0.000000000   0.000000000   0.689712115

ATOMIC_POSITIONS (crystal)
Ba               0.5000000000        0.5000000000        0.5001034654
Ba               0.0000000000        0.0000000000        0.9998965346
B                0.6105343511        0.2401870193        0.0000584576
B                0.3894656489        0.7598129807        0.0000584576
B                0.1105343511        0.2598129807        0.4999415424
B                0.8894656489        0.7401870193        0.4999415424
H                0.4388343954        0.2911966973        0.0002193492
H                0.5611656046        0.7088033027        0.0002193492
H                0.9388343954        0.2088033027        0.4997806508
H                0.0611656046        0.7911966973        0.4997806508
H                0.7190034495        0.3803643283       -0.0000052359
H                0.2809965505        0.6196356717       -0.0000052359
H                0.2190034495        0.1196356717        0.5000052359
H                0.7809965505        0.8803643283        0.5000052359
H                0.6388892733        0.1448591008        0.7861741394
H                0.3611107267        0.8551408992        0.7861741394
H                0.1388892733        0.3551408992        0.7138258606
H                0.8611107267        0.6448591008        0.7138258606
H                0.3609149436        0.8551843960        0.2138436446
H                0.6390850564        0.1448156040        0.2138436446
H                0.8609149436        0.6448156040        0.2861563554
H                0.1390850564        0.3551843960        0.2861563554



     Writing config-only to output data dir ./pwscf.save/ :
     XML data file
     NEW-OLD atomic charge density approx. for the potential

     total cpu time spent up to now is      926.4 secs

     Self-consistent Calculation

     iteration #  1     ecut=   100.00 Ry     beta= 0.70
     Davidson diagonalization with overlap
     ethr =  1.00E-06,  avg # of iterations =  2.0

     Threshold (ethr) on eigenvalues was too large:
     Diagonalizing with lowered threshold

     Davidson diagonalization with overlap
     ethr =  1.48E-08,  avg # of iterations =  3.0

     total cpu time spent up to now is      959.7 secs

     total energy              =    -156.46697853 Ry
     estimated scf accuracy    <       0.00000976 Ry

     iteration #  2     ecut=   100.00 Ry     beta= 0.70
     Davidson diagonalization with overlap
     ethr =  2.03E-08,  avg # of iterations =  2.0

     total cpu time spent up to now is      975.7 secs

     total energy              =    -156.46698069 Ry
     estimated scf accuracy    <       0.00000099 Ry

     iteration #  3     ecut=   100.00 Ry     beta= 0.70
     Davidson diagonalization with overlap
     ethr =  2.07E-09,  avg # of iterations =  2.0

     total cpu time spent up to now is      991.9 secs

     total energy              =    -156.46698085 Ry
     estimated scf accuracy    <       0.00000003 Ry

     iteration #  4     ecut=   100.00 Ry     beta= 0.70
     Davidson diagonalization with overlap
     ethr =  5.76E-11,  avg # of iterations =  4.4

     total cpu time spent up to now is     1011.1 secs

     total energy              =    -156.46698086 Ry
     estimated scf accuracy    <          4.6E-09 Ry

     iteration #  5     ecut=   100.00 Ry     beta= 0.70
     Davidson diagonalization with overlap
     ethr =  9.59E-12,  avg # of iterations =  4.5

     total cpu time spent up to now is     1030.9 secs

     total energy              =    -156.46698086 Ry
     estimated scf accuracy    <          1.0E-10 Ry

     iteration #  6     ecut=   100.00 Ry     beta= 0.70
     Davidson diagonalization with overlap
     ethr =  2.16E-13,  avg # of iterations =  6.1

     total cpu time spent up to now is     1057.5 secs

     End of self-consistent calculation

          k = 0.0000 0.0000 0.0000 ( 26171 PWs)   bands (ev):

   -24.6324 -24.6266 -10.0430  -9.9797  -9.8384  -9.8112  -9.7743  -9.7298
    -6.3150  -5.4829  -4.9698  -4.8111  -1.9669  -1.1403  -1.1381  -0.7946
    -0.4193  -0.4108  -0.3857  -0.2502  -0.0944   0.2231   0.2491   0.2749

          k = 0.0000 0.0000 0.3625 ( 26163 PWs)   bands (ev):

   -24.6268 -24.6227  -9.9706  -9.9667  -9.9465  -9.9290  -9.8252  -9.8108
    -5.9031  -5.2806  -5.0967  -4.9906  -1.6286  -1.4030  -0.9478  -0.9321
    -0.8045  -0.7046  -0.3883  -0.1398   0.0608   0.0619   0.1440   0.2675

          k = 0.0000 0.0000-0.7249 ( 26136 PWs)   bands (ev):

   -24.6201 -24.6201 -10.1373 -10.1372  -9.8609  -9.8608  -9.8361  -9.8361
    -5.2945  -5.2941  -5.1998  -5.1994  -1.3882  -1.3877  -1.3739  -1.3725
    -0.4546  -0.4541  -0.4204  -0.4186   0.0879   0.0879   0.1099   0.1102

          k = 0.0000 0.2434 0.0000 ( 26156 PWs)   bands (ev):

   -24.6315 -24.6274 -10.0205  -9.9586  -9.8731  -9.8357  -9.7676  -9.7362
    -6.1504  -5.4143  -5.1948  -4.9152  -1.6645  -1.3002  -1.2129  -0.5150
    -0.5021  -0.5016  -0.2257  -0.1110  -0.0629  -0.0220   0.1469   0.2234

          k = 0.0000 0.2434 0.3625 ( 26145 PWs)   bands (ev):

   -24.6262 -24.6233 -10.0002  -9.9689  -9.9174  -9.9103  -9.8304  -9.8254
    -5.8090  -5.3379  -5.1373  -5.0282  -1.4583  -1.4249  -1.2156  -0.7209
    -0.6926  -0.5289  -0.4987  -0.0961  -0.0097   0.0076   0.1241   0.1707

          k = 0.0000 0.2434-0.7249 ( 26170 PWs)   bands (ev):

[...]
        18        H      tau(  18) = (   0.8574903   0.6814322   0.4849003  )
        19        H      tau(  19) = (   0.3435262   0.8582492   0.1484178  )
        20        H      tau(  20) = (   0.6844139   0.1682056   0.1484178  )
        21        H      tau(  21) = (   0.8574963   0.6814330   0.1880794  )
        22        H      tau(  22) = (   0.1704439   0.3450218   0.1880794  )

     number of k points=    27
                       cart. coord. in units 2pi/alat
        k(    1) = (   0.0000000   0.0000000   0.0000000), wk =   0.0312500
        k(    2) = (   0.0000000   0.0000000   0.3714741), wk =   0.0625000
        k(    3) = (   0.0000000   0.0000000  -0.7429482), wk =   0.0312500
        k(    4) = (   0.0000000   0.2435568   0.0000000), wk =   0.0625000
        k(    5) = (   0.0000000   0.2435568   0.3714741), wk =   0.1250000
        k(    6) = (   0.0000000   0.2435568  -0.7429482), wk =   0.0625000
        k(    7) = (   0.0000000  -0.4871135   0.0000000), wk =   0.0312500
        k(    8) = (   0.0000000  -0.4871135   0.3714741), wk =   0.0625000
        k(    9) = (   0.0000000  -0.4871135  -0.7429482), wk =   0.0312500
        k(   10) = (   0.2432048   0.0000000   0.0000000), wk =   0.0625000
        k(   11) = (   0.2432048   0.0000000   0.3714741), wk =   0.1250000
        k(   12) = (   0.2432048   0.0000000  -0.7429482), wk =   0.0625000
        k(   13) = (   0.2432048   0.2435568   0.0000000), wk =   0.1250000
        k(   14) = (   0.2432048   0.2435568   0.3714741), wk =   0.2500000
        k(   15) = (   0.2432048   0.2435568  -0.7429482), wk =   0.1250000
        k(   16) = (   0.2432048  -0.4871135   0.0000000), wk =   0.0625000
        k(   17) = (   0.2432048  -0.4871135   0.3714741), wk =   0.1250000
        k(   18) = (   0.2432048  -0.4871135  -0.7429482), wk =   0.0625000
        k(   19) = (  -0.4864097   0.0000000   0.0000000), wk =   0.0312500
        k(   20) = (  -0.4864097   0.0000000   0.3714741), wk =   0.0625000
        k(   21) = (  -0.4864097   0.0000000  -0.7429482), wk =   0.0312500
        k(   22) = (  -0.4864097   0.2435568   0.0000000), wk =   0.0625000
        k(   23) = (  -0.4864097   0.2435568   0.3714741), wk =   0.1250000
        k(   24) = (  -0.4864097   0.2435568  -0.7429482), wk =   0.0625000
        k(   25) = (  -0.4864097  -0.4871135   0.0000000), wk =   0.0312500
        k(   26) = (  -0.4864097  -0.4871135   0.3714741), wk =   0.0625000
        k(   27) = (  -0.4864097  -0.4871135  -0.7429482), wk =   0.0312500

     Dense  grid:   591573 G-vectors     FFT dimensions: ( 128, 120,  80)

     Smooth grid:   209027 G-vectors     FFT dimensions: (  90,  90,  60)

     Estimated max dynamical RAM per process >      96.23 MB

     Estimated total dynamical RAM >       2.26 GB

     Initial potential from superposition of free atoms

     starting charge      47.9682, renormalised to      48.0000
     Starting wfcs are   42 randomized atomic wfcs

     total cpu time spent up to now is    11020.7 secs

     Self-consistent Calculation

     iteration #  1     ecut=   100.00 Ry     beta= 0.70
     Davidson diagonalization with overlap
     ethr =  1.00E-06,  avg # of iterations = 11.1

     total cpu time spent up to now is    11072.8 secs

     total energy              =    -155.82391148 Ry
     estimated scf accuracy    <       2.29833049 Ry

     iteration #  2     ecut=   100.00 Ry     beta= 0.70
     Davidson diagonalization with overlap
     ethr =  4.79E-03,  avg # of iterations =  2.0

     total cpu time spent up to now is    11089.8 secs

     total energy              =    -156.39275792 Ry
     estimated scf accuracy    <       0.47650823 Ry

     iteration #  3     ecut=   100.00 Ry     beta= 0.70
     Davidson diagonalization with overlap
     ethr =  9.93E-04,  avg # of iterations =  2.0

     total cpu time spent up to now is    11106.7 secs

     total energy              =    -156.46799021 Ry
     estimated scf accuracy    <       0.00571486 Ry

     iteration #  4     ecut=   100.00 Ry     beta= 0.70
     Davidson diagonalization with overlap
     ethr =  1.19E-05,  avg # of iterations =  3.4

     total cpu time spent up to now is    11127.8 secs

     total energy              =    -156.47014921 Ry
     estimated scf accuracy    <       0.00231469 Ry

     iteration #  5     ecut=   100.00 Ry     beta= 0.70
     Davidson diagonalization with overlap
     ethr =  4.82E-06,  avg # of iterations =  3.1

     total cpu time spent up to now is    11145.1 secs

     total energy              =    -156.47080105 Ry
     estimated scf accuracy    <       0.00005513 Ry

     iteration #  6     ecut=   100.00 Ry     beta= 0.70
     Davidson diagonalization with overlap
     ethr =  1.15E-07,  avg # of iterations =  6.0

     total cpu time spent up to now is    11172.9 secs

     total energy              =    -156.47090147 Ry
     estimated scf accuracy    <       0.00001967 Ry

     iteration #  7     ecut=   100.00 Ry     beta= 0.70
     Davidson diagonalization with overlap
     ethr =  4.10E-08,  avg # of iterations =  2.4

     total cpu time spent up to now is    11190.3 secs

     total energy              =    -156.47090586 Ry
     estimated scf accuracy    <       0.00000012 Ry

     iteration #  8     ecut=   100.00 Ry     beta= 0.70
     Davidson diagonalization with overlap
     ethr =  2.49E-10,  avg # of iterations =  7.1

     total cpu time spent up to now is    11222.5 secs

     total energy              =    -156.47090631 Ry
     estimated scf accuracy    <       0.00000003 Ry

     iteration #  9     ecut=   100.00 Ry     beta= 0.70
     Davidson diagonalization with overlap
     ethr =  6.35E-11,  avg # of iterations =  3.0

     total cpu time spent up to now is    11238.8 secs

     total energy              =    -156.47090631 Ry
     estimated scf accuracy    <          8.5E-09 Ry

     iteration # 10     ecut=   100.00 Ry     beta= 0.70
     Davidson diagonalization with overlap
     ethr =  1.78E-11,  avg # of iterations =  3.0

     total cpu time spent up to now is    11257.0 secs

     total energy              =    -156.47090631 Ry
     estimated scf accuracy    <          1.3E-10 Ry

     iteration # 11     ecut=   100.00 Ry     beta= 0.70
     Davidson diagonalization with overlap
     ethr =  2.64E-13,  avg # of iterations =  8.9

     total cpu time spent up to now is    11297.4 secs

     total energy              =    -156.47090631 Ry
     estimated scf accuracy    <          1.2E-10 Ry

     iteration # 12     ecut=   100.00 Ry     beta= 0.70
     Davidson diagonalization with overlap
     ethr =  2.40E-13,  avg # of iterations =  2.0

     total cpu time spent up to now is    11314.6 secs

     total energy              =    -156.47090631 Ry
     estimated scf accuracy    <          6.8E-12 Ry

     iteration # 13     ecut=   100.00 Ry     beta= 0.70
     Davidson diagonalization with overlap
     ethr =  1.00E-13,  avg # of iterations =  1.1

     total cpu time spent up to now is    11328.0 secs

     End of self-consistent calculation

          k = 0.0000 0.0000 0.0000 ( 26119 PWs)   bands (ev):

   -24.4974 -24.4914  -9.9883  -9.9376  -9.7520  -9.7185  -9.6644  -9.6159
    -6.3978  -5.5522  -4.9997  -4.9222  -2.1154  -1.1774  -1.1395  -0.8196
    -0.7239  -0.5718  -0.4932  -0.3592  -0.0997   0.1566   0.1938   0.2103

          k = 0.0000 0.0000 0.3715 ( 26132 PWs)   bands (ev):

   -24.4898 -24.4855  -9.9213  -9.9026  -9.8993  -9.8642  -9.7333  -9.7121
    -5.9048  -5.2679  -5.1738  -5.1223  -1.7083  -1.5810  -1.3033  -0.9373
    -0.8113  -0.7532  -0.4238  -0.1936  -0.0340   0.0061   0.0233   0.1400

          k = 0.0000 0.0000-0.7429 ( 26084 PWs)   bands (ev):

   -24.4809 -24.4809 -10.1437 -10.1437  -9.7620  -9.7620  -9.7441  -9.7441
    -5.3422  -5.3421  -5.2155  -5.2154  -1.6581  -1.6580  -1.4712  -1.4711
    -0.4551  -0.4550  -0.4383  -0.4382  -0.0689  -0.0688   0.0403   0.0405

          k = 0.0000 0.2436 0.0000 ( 26136 PWs)   bands (ev):

   -24.4965 -24.4923  -9.9641  -9.9138  -9.7876  -9.7484  -9.6573  -9.6229
    -6.2365  -5.5390  -5.1768  -5.0023  -1.8557  -1.3688  -1.2039  -0.5891
    -0.5672  -0.5514  -0.4691  -0.2784  -0.1296  -0.1118   0.1078   0.1416

          k = 0.0000 0.2436 0.3715 ( 26165 PWs)   bands (ev):

   -24.4891 -24.4861  -9.9482  -9.9221  -9.8518  -9.8438  -9.7409  -9.7297
    -5.8128  -5.3420  -5.2041  -5.1448  -1.5998  -1.5827  -1.4060  -0.8110
    -0.7720  -0.5826  -0.5333  -0.1839  -0.0908  -0.0215   0.0262   0.0446

          k = 0.0000 0.2436-0.7429 ( 26160 PWs)   bands (ev):

   -24.4809 -24.4809 -10.1522 -10.1522  -9.7499  -9.7499  -9.7440  -9.7440
    -5.5394  -5.5394  -5.0088  -5.0088  -1.7968  -1.7967  -1.2988  -1.2988
    -0.4259  -0.4258  -0.3719  -0.3718  -0.1153  -0.1151  -0.0371  -0.0370

          k = 0.0000-0.4871 0.0000 ( 26162 PWs)   bands (ev):

   -24.4944 -24.4944  -9.9059  -9.9059  -9.8097  -9.8097  -9.6400  -9.6400
    -5.8378  -5.8378  -5.1758  -5.1758  -1.5601  -1.5601  -0.8297  -0.8297
    -0.5974  -0.5974  -0.2459  -0.2459  -0.1715  -0.1715  -0.0039  -0.0039

          k = 0.0000-0.4871 0.3715 ( 26166 PWs)   bands (ev):

   -24.4876 -24.4876  -9.9486  -9.9486  -9.8152  -9.8152  -9.7564  -9.7564
    -5.5822  -5.5822  -5.1867  -5.1867  -1.5970  -1.5970  -1.1181  -1.1181
    -0.5773  -0.5773  -0.2654  -0.2654  -0.1899  -0.1899   0.0231   0.0231

          k = 0.0000-0.4871-0.7429 ( 26136 PWs)   bands (ev):

   -24.4809 -24.4809 -10.1603 -10.1603  -9.7444  -9.7444  -9.7378  -9.7378
    -5.6400  -5.6400  -4.8985  -4.8985  -1.8907  -1.8907  -1.1180  -1.1180
    -0.4125  -0.4125  -0.3401  -0.3401  -0.2961  -0.2961   0.0201   0.0201

          k = 0.2432 0.0000 0.0000 ( 26152 PWs)   bands (ev):

   -24.4965 -24.4923  -9.9585  -9.9176  -9.7836  -9.7562  -9.6573  -9.6230
    -6.2462  -5.6058  -5.0343  -5.0333  -1.9223  -1.1439  -1.0744  -0.9348
    -0.5263  -0.4867  -0.4696  -0.3663  -0.1677  -0.1445   0.0916   0.1430

          k = 0.2432 0.0000 0.3715 ( 26161 PWs)   bands (ev):

   -24.4891 -24.4861  -9.9436  -9.9253  -9.8717  -9.8279  -9.7501  -9.7214
    -5.7933  -5.2758  -5.2234  -5.1924  -1.6834  -1.5055  -1.4312  -0.8318
    -0.7728  -0.6179  -0.4604  -0.2585  -0.1451  -0.0039   0.0677   0.0982

          k = 0.2432 0.0000-0.7429 ( 26160 PWs)   bands (ev):

   -24.4809 -24.4809 -10.1543 -10.1543  -9.7557  -9.7557  -9.7386  -9.7386
    -5.4478  -5.4478  -5.0922  -5.0922  -1.9637  -1.9636  -1.1581  -1.1580
    -0.4347  -0.4346  -0.3333  -0.3332  -0.1579  -0.1578   0.0282   0.0283

          k = 0.2432 0.2436 0.0000 ( 26109 PWs)   bands (ev):

   -24.4959 -24.4929  -9.9799  -9.8969  -9.8180  -9.7266  -9.6521  -9.6279
    -6.1375  -5.6320  -5.1763  -5.0249  -1.7299  -1.3511  -1.1002  -0.6876
    -0.6087  -0.5510  -0.3673  -0.2586  -0.2567  -0.1231  -0.0115   0.1177

          k = 0.2432 0.2436 0.3715 ( 26156 PWs)   bands (ev):

   -24.4887 -24.4866  -9.9429  -9.9195  -9.8934  -9.8143  -9.7558  -9.7168
    -5.7192  -5.3346  -5.2623  -5.1877  -1.6645  -1.5230  -1.4055  -0.8944
    -0.6747  -0.5668  -0.4354  -0.2114  -0.1872  -0.0575   0.0419   0.1021

          k = 0.2432 0.2436-0.7429 ( 26160 PWs)   bands (ev):

   -24.4808 -24.4808 -10.1594 -10.1449  -9.7645  -9.7498  -9.7427  -9.7367
    -5.5793  -5.4159  -5.1216  -4.9515  -2.0013  -1.8504  -1.3266  -1.1260
    -0.4942  -0.4440  -0.2627  -0.2045  -0.1817  -0.1167  -0.0299   0.0456

          k = 0.2432-0.4871 0.0000 ( 26138 PWs)   bands (ev):

   -24.4944 -24.4944  -9.9576  -9.9576  -9.7559  -9.7559  -9.6399  -9.6399
    -5.8638  -5.8638  -5.1454  -5.1454  -1.4942  -1.4942  -0.8771  -0.8771
    -0.6314  -0.6314  -0.2845  -0.2845  -0.1347  -0.1347  -0.0059  -0.0059

          k = 0.2432-0.4871 0.3715 ( 26148 PWs)   bands (ev):

   -24.4876 -24.4876  -9.9378  -9.9378  -9.8555  -9.8555  -9.7295  -9.7295
    -5.5352  -5.5352  -5.2261  -5.2261  -1.6208  -1.6208  -1.1484  -1.1484
    -0.5687  -0.5687  -0.2885  -0.2885  -0.0893  -0.0893   0.0115   0.0115

          k = 0.2432-0.4871-0.7429 ( 26172 PWs)   bands (ev):

   -24.4808 -24.4808 -10.1503 -10.1503  -9.7523  -9.7523  -9.7467  -9.7467
    -5.5618  -5.5618  -4.9663  -4.9663  -1.9040  -1.9040  -1.2858  -1.2858
    -0.4141  -0.4141  -0.2677  -0.2677  -0.1195  -0.1195   0.0175   0.0175

          k =-0.4864 0.0000 0.0000 ( 26122 PWs)   bands (ev):

   -24.4944 -24.4944  -9.8969  -9.8969  -9.8207  -9.8207  -9.6401  -9.6401
    -5.8893  -5.8893  -5.0916  -5.0916  -1.5336  -1.5336  -0.7275  -0.7275
    -0.4758  -0.4758  -0.4683  -0.4683  -0.3092  -0.3092  -0.0195  -0.0195

          k =-0.4864 0.0000 0.3715 ( 26182 PWs)   bands (ev):

   -24.4876 -24.4876  -9.9487  -9.9487  -9.8251  -9.8251  -9.7499  -9.7499
    -5.5224  -5.5224  -5.2282  -5.2282  -1.6224  -1.6224  -1.1403  -1.1403
    -0.5394  -0.5394  -0.4148  -0.4148  -0.0915  -0.0915   0.0527   0.0527

          k =-0.4864 0.0000-0.7429 ( 26152 PWs)   bands (ev):

   -24.4808 -24.4808 -10.1643 -10.1643  -9.7524  -9.7524  -9.7307  -9.7307
    -5.5065  -5.5065  -5.0150  -5.0150  -2.1265  -2.1265  -0.9334  -0.9334
    -0.4280  -0.4280  -0.4169  -0.4169  -0.0601  -0.0601  -0.0191  -0.0191

          k =-0.4864 0.2436 0.0000 ( 26134 PWs)   bands (ev):

   -24.4944 -24.4944  -9.9559  -9.9559  -9.7586  -9.7586  -9.6399  -9.6399
    -5.8887  -5.8887  -5.1041  -5.1041  -1.4833  -1.4833  -0.8113  -0.8113
    -0.5929  -0.5929  -0.4341  -0.4341  -0.1813  -0.1813   0.0131   0.0131

          k =-0.4864 0.2436 0.3715 ( 26146 PWs)   bands (ev):

   -24.4876 -24.4876  -9.9375  -9.9375  -9.8588  -9.8588  -9.7281  -9.7281
    -5.4996  -5.4996  -5.2525  -5.2525  -1.6308  -1.6308  -1.1748  -1.1748
    -0.5029  -0.5029  -0.3780  -0.3780  -0.0598  -0.0598   0.0255   0.0255

          k =-0.4864 0.2436-0.7429 ( 26184 PWs)   bands (ev):

   -24.4808 -24.4808 -10.1524 -10.1524  -9.7575  -9.7575  -9.7419  -9.7419
    -5.4836  -5.4836  -5.0359  -5.0359  -2.0466  -2.0466  -1.1624  -1.1624
    -0.3953  -0.3953  -0.3436  -0.3436  -0.0726  -0.0726   0.0753   0.0753

          k =-0.4864-0.4871 0.0000 ( 26092 PWs)   bands (ev):

   -24.4944 -24.4944  -9.9899  -9.9899  -9.7213  -9.7213  -9.6397  -9.6397
    -5.8882  -5.8882  -5.1164  -5.1164  -1.4159  -1.4159  -0.9392  -0.9392
    -0.6610  -0.6610  -0.3118  -0.3118  -0.1023  -0.1023  -0.0176  -0.0176

          k =-0.4864-0.4871 0.3715 ( 26104 PWs)   bands (ev):

   -24.4876 -24.4876  -9.9089  -9.9089  -9.9026  -9.9026  -9.7138  -9.7138
    -5.4715  -5.4715  -5.2819  -5.2819  -1.6318  -1.6318  -1.2233  -1.2233
    -0.4914  -0.4914  -0.2081  -0.2081  -0.1649  -0.1649   0.0337   0.0337

          k =-0.4864-0.4871-0.7429 ( 26160 PWs)   bands (ev):

   -24.4808 -24.4808 -10.1396 -10.1396  -9.7675  -9.7675  -9.7491  -9.7491
    -5.4588  -5.4588  -5.0587  -5.0587  -1.9134  -1.9134  -1.4257  -1.4257
    -0.3604  -0.3604  -0.1697  -0.1697  -0.1339  -0.1339   0.0935   0.0935

     highest occupied level (ev):     0.2103

!    total energy              =    -156.47090631 Ry
     estimated scf accuracy    <          3.5E-13 Ry

     The total energy is the sum of the following terms:
     one-electron contribution =     -31.44764331 Ry
     hartree contribution      =      29.10522763 Ry
     xc contribution           =     -49.06082287 Ry
     ewald contribution        =    -105.06766776 Ry

     convergence has been achieved in  13 iterations

     Forces acting on atoms (cartesian axes, Ry/au):

     atom    1 type  2   force =     0.00000000    0.00000000    0.00000167
     atom    2 type  2   force =     0.00000000    0.00000000   -0.00000167
     atom    3 type  1   force =    -0.00000073    0.00000311   -0.00000427
     atom    4 type  1   force =     0.00000073   -0.00000311   -0.00000427
     atom    5 type  1   force =    -0.00000073   -0.00000311    0.00000427
     atom    6 type  1   force =     0.00000073    0.00000311    0.00000427
     atom    7 type  3   force =     0.00000044   -0.00000119    0.00000792
     atom    8 type  3   force =    -0.00000044    0.00000119    0.00000792
     atom    9 type  3   force =     0.00000044    0.00000119   -0.00000792
     atom   10 type  3   force =    -0.00000044   -0.00000119   -0.00000792
     atom   11 type  3   force =     0.00000055    0.00000083   -0.00000041
     atom   12 type  3   force =    -0.00000055   -0.00000083   -0.00000041
     atom   13 type  3   force =     0.00000055   -0.00000083    0.00000041
     atom   14 type  3   force =    -0.00000055    0.00000083    0.00000041
     atom   15 type  3   force =     0.00000344   -0.00000341   -0.00000396
     atom   16 type  3   force =    -0.00000344    0.00000341   -0.00000396
     atom   17 type  3   force =     0.00000344    0.00000341    0.00000396
     atom   18 type  3   force =    -0.00000344   -0.00000341    0.00000396
     atom   19 type  3   force =     0.00000457   -0.00000144   -0.00000150
     atom   20 type  3   force =    -0.00000457    0.00000144   -0.00000150
     atom   21 type  3   force =     0.00000457    0.00000144    0.00000150
     atom   22 type  3   force =    -0.00000457   -0.00000144    0.00000150

     Total force =     0.000025     Total SCF correction =     0.000000


     Computing stress (Cartesian axis) and pressure

          total   stress  (Ry/bohr**3)                   (kbar)     P=       -7.14
  -0.00004853   0.00000000   0.00000000           -7.14        0.00        0.00
   0.00000000  -0.00004855   0.00000000            0.00       -7.14        0.00
   0.00000000   0.00000000  -0.00004859            0.00        0.00       -7.15


     Writing all to output data dir ./pwscf.save/ :
     XML data file, charge density, pseudopotentials, collected wavefunctions

     init_run     :     21.65s CPU     24.17s WALL (       2 calls)
     electrons    :   9209.20s CPU   9280.18s WALL (      62 calls)
     update_pot   :     15.09s CPU     16.45s WALL (      60 calls)
     forces       :    217.79s CPU    219.90s WALL (      62 calls)
     stress       :   1796.89s CPU   1801.49s WALL (      62 calls)

     Called by init_run:
     wfcinit      :     16.82s CPU     16.95s WALL (       2 calls)
     potinit      :      0.72s CPU      1.25s WALL (       2 calls)
     hinit0       :      2.24s CPU      4.02s WALL (       2 calls)

     Called by electrons:
     c_bands      :   8097.40s CPU   8150.30s WALL (     488 calls)
     sum_band     :    951.88s CPU    961.91s WALL (     488 calls)
     v_of_rho     :     67.40s CPU     70.55s WALL (     509 calls)
     newd         :     94.80s CPU     96.64s WALL (     509 calls)
     mix_rho      :      7.69s CPU      8.47s WALL (     488 calls)

     Called by c_bands:
     init_us_2    :    180.03s CPU    182.36s WALL (   29754 calls)
     cegterg      :   7260.15s CPU   7310.22s WALL (   13176 calls)

     Called by *egterg:
     cdiaghg      :     99.05s CPU     99.77s WALL (   55695 calls)
     h_psi        :   5008.59s CPU   5048.54s WALL (   58476 calls)
     s_psi        :    977.54s CPU    981.54s WALL (   58476 calls)
     g_psi        :     17.17s CPU     17.25s WALL (   45246 calls)

     Called by h_psi:
     h_psi:calbec :    892.78s CPU    897.26s WALL (   58476 calls)
     vloc_psi     :   3122.52s CPU   3154.27s WALL (   58476 calls)
     add_vuspsi   :    978.56s CPU    982.55s WALL (   58476 calls)

     General routines
     calbec       :   1786.69s CPU   1793.68s WALL (   80022 calls)
     fft          :     53.71s CPU     60.76s WALL (    8144 calls)
     ffts         :      3.01s CPU      3.70s WALL (     997 calls)
     fftw         :   3130.00s CPU   3161.03s WALL ( 2341010 calls)
     interpolate  :      5.40s CPU      6.32s WALL (     509 calls)

     Parallel routines

     PWSCF        :      3h 7m CPU      3h 9m WALL


   This run was terminated on:  17:51:49   6Aug2024            

=------------------------------------------------------------------------------=
   JOB DONE.
=------------------------------------------------------------------------------=
