
     Program PWSCF v.7.3.1 starts on 27May2024 at 21:34:21 

     This program is part of the open-source Quantum ESPRESSO suite
     for quantum simulation of materials; please cite
         "P. Giannozzi et al., J. Phys.:Condens. Matter 21 395502 (2009);
         "P. Giannozzi et al., J. Phys.:Condens. Matter 29 465901 (2017);
         "P. Giannozzi et al., J. Chem. Phys. 152 154105 (2020);
          URL http://www.quantum-espresso.org", 
     in publications or presentations arising from this work. More details at
     http://www.quantum-espresso.org/quote

     Parallel version (MPI), running on    24 processors

     MPI processes distributed on     1 nodes
     110003 MiB available memory on the printing compute node when the environment starts

     Waiting for input...
     Reading input from standard input
Warning: card &CELL ignored
Warning: card / ignored

     Current dimensions of program PWSCF are:
     Max number of different atomic species (ntypx) = 10
     Max number of k-points (npk) =  40000
     Max angular momentum in pseudopotentials (lmaxx) =  4

     R & G space division:  proc/nbgrp/npool/nimage =      24
     Subspace diagonalization in iterative solution of the eigenvalue problem:
     a serial algorithm will be used


     Parallelization info
     --------------------
     sticks:   dense  smooth     PW     G-vecs:    dense   smooth      PW
     Min         239     239     65                 9297     9297    1335
     Max         240     240     66                 9300     9300    1338
     Sum        5743    5743   1569               223149   223149   32071

     Using Slab Decomposition


     Title: 
     k-grid_test                                                                


     bravais-lattice index     =            8
     lattice parameter (alat)  =      13.1993  a.u.
     unit-cell volume          =    1652.2482 (a.u.)^3
     number of atoms/cell      =           22
     number of atomic types    =            3
     number of electrons       =        48.00
     number of Kohn-Sham states=           24
     kinetic-energy cutoff     =     100.0000  Ry
     charge density cutoff     =     400.0000  Ry
     scf convergence threshold =      1.0E-08
     mixing beta               =       0.7000
     number of iterations used =            8  plain     mixing
     Exchange-correlation= PBESOL
                           (   1   4  10   8   0   0   0)

     celldm(1)=  13.199283  celldm(2)=   1.034883  celldm(3)=   0.694277
     celldm(4)=   0.000000  celldm(5)=   0.000000  celldm(6)=   0.000000

     crystal axes: (cart. coord. in units of alat)
               a(1) = (   1.000000   0.000000   0.000000 )  
               a(2) = (   0.000000   1.034883   0.000000 )  
               a(3) = (   0.000000   0.000000   0.694277 )  

     reciprocal axes: (cart. coord. in units 2 pi/alat)
               b(1) = (  1.000000  0.000000  0.000000 )  
               b(2) = (  0.000000  0.966293  0.000000 )  
               b(3) = (  0.000000  0.000000  1.440347 )  


     PseudoPot. # 1 for B  read from file:
     /home/mehlhorn/pseudos/b_pbesol_v1.4.uspp.F.UPF
     MD5 check sum: 369b69bef2c3aeed4453bd8b804fd6a8
     Pseudo is Ultrasoft + core correction, Zval =  3.0
     Generated by new atomic code, or converted to UPF format
     Using radial grid of  781 points,  4 beta functions with: 
                l(1) =   0
                l(2) =   0
                l(3) =   1
                l(4) =   1
     Q(r) pseudized with  8 coefficients,  rinner =    1.100   1.100   1.100


     PseudoPot. # 2 for Ba read from file:
     /home/mehlhorn/pseudos/Ba.nc.z_10.oncvpsp4.dojo.v4-sp.upf
     MD5 check sum: c10ed334bb677c0554edec7181ce9143
     Pseudo is Norm-conserving + core correction, Zval = 10.0
     Generated using ONCVPSP code by D. R. Hamann
     Using radial grid of 1938 points,  8 beta functions with: 
                l(1) =   0
                l(2) =   0
                l(3) =   1
                l(4) =   1
                l(5) =   2
                l(6) =   2
                l(7) =   3
                l(8) =   3

     PseudoPot. # 3 for H  read from file:
     /home/mehlhorn/pseudos/H_ONCV_PBEsol-1.0.upf
     MD5 check sum: 398ef8f67c0a7342c05c87c5e19ea467
     Pseudo is Norm-conserving, Zval =  1.0
     Generated using ONCVPSP code by D. R. Hamann
     Using radial grid of 1180 points,  2 beta functions with: 
                l(1) =   0
                l(2) =   0

     atomic species   valence    mass     pseudopotential
     B                 3.00    10.81100     B ( 1.00)
     Ba               10.00   137.32700     Ba( 1.00)
     H                 1.00     1.00794     H ( 1.00)

      4 Sym. Ops. (no inversion) found ( 2 have fractional translation)



   Cartesian axes

     site n.     atom                  positions (alat units)
         1        Ba     tau(   1) = (   0.5000000   0.5174415   0.3471942  )
         2        Ba     tau(   2) = (   0.0000000   0.0000000   0.6942217  )
         3        B      tau(   3) = (   0.6308000   0.2628603   0.0000139  )
         4        B      tau(   4) = (   0.3692000   0.7720228   0.0000139  )
         5        B      tau(   5) = (   0.1308000   0.2545812   0.3471247  )
         6        B      tau(   6) = (   0.8692000   0.7803018   0.3471247  )
         7        H      tau(   7) = (   0.4582000   0.2939068   0.0001805  )
         8        H      tau(   8) = (   0.5418000   0.7409763   0.0001805  )
         9        H      tau(   9) = (   0.9582000   0.2235347   0.3469581  )
        10        H      tau(  10) = (   0.0418000   0.8113483   0.3469581  )
        11        H      tau(  11) = (   0.7204000   0.4141602   0.0000000  )
        12        H      tau(  12) = (   0.2796000   0.6207229   0.0000000  )
        13        H      tau(  13) = (   0.2204000   0.1032813   0.3471386  )
        14        H      tau(  14) = (   0.7796000   0.9316018   0.3471386  )
        15        H      tau(  15) = (   0.6689000   0.1713766   0.5494094  )
        16        H      tau(  16) = (   0.3311000   0.8635064   0.5494094  )
        17        H      tau(  17) = (   0.1689000   0.3460649   0.4920065  )
        18        H      tau(  18) = (   0.8311000   0.6888182   0.4920065  )
        19        H      tau(  19) = (   0.3311000   0.8635064   0.1448679  )
        20        H      tau(  20) = (   0.6689000   0.1713766   0.1448679  )
        21        H      tau(  21) = (   0.8311000   0.6888182   0.2022707  )
        22        H      tau(  22) = (   0.1689000   0.3460649   0.2022707  )

     number of k points=     8
                       cart. coord. in units 2pi/alat
        k(    1) = (   0.0000000   0.0000000   0.0000000), wk =   0.2500000
        k(    2) = (   0.0000000   0.0000000  -0.7201734), wk =   0.2500000
        k(    3) = (   0.0000000  -0.4831464   0.0000000), wk =   0.2500000
        k(    4) = (   0.0000000  -0.4831464  -0.7201734), wk =   0.2500000
        k(    5) = (  -0.5000000   0.0000000   0.0000000), wk =   0.2500000
        k(    6) = (  -0.5000000   0.0000000  -0.7201734), wk =   0.2500000
        k(    7) = (  -0.5000000  -0.4831464   0.0000000), wk =   0.2500000
        k(    8) = (  -0.5000000  -0.4831464  -0.7201734), wk =   0.2500000

     Dense  grid:   223149 G-vectors     FFT dimensions: (  90,  90,  60)

     Estimated max dynamical RAM per process >      33.27 MB

     Estimated total dynamical RAM >     798.42 MB

     Initial potential from superposition of free atoms

     starting charge      47.9682, renormalised to      48.0000
     Starting wfcs are   42 randomized atomic wfcs

     total cpu time spent up to now is        3.9 secs

     Self-consistent Calculation

     iteration #  1     ecut=   100.00 Ry     beta= 0.70
     Davidson diagonalization with overlap
     ethr =  1.00E-02,  avg # of iterations =  2.0

     total cpu time spent up to now is        8.1 secs

     total energy              =    -155.85268378 Ry
     estimated scf accuracy    <       2.29054724 Ry

     iteration #  2     ecut=   100.00 Ry     beta= 0.70
     Davidson diagonalization with overlap
     ethr =  4.77E-03,  avg # of iterations =  2.0

     total cpu time spent up to now is       12.2 secs

     total energy              =    -156.37972894 Ry
     estimated scf accuracy    <       0.41657046 Ry

     iteration #  3     ecut=   100.00 Ry     beta= 0.70
     Davidson diagonalization with overlap
     ethr =  8.68E-04,  avg # of iterations =  2.0

     total cpu time spent up to now is       16.4 secs

     total energy              =    -156.44995776 Ry
     estimated scf accuracy    <       0.00521222 Ry

     iteration #  4     ecut=   100.00 Ry     beta= 0.70
     Davidson diagonalization with overlap
     ethr =  1.09E-05,  avg # of iterations =  5.1

     total cpu time spent up to now is       22.3 secs

     total energy              =    -156.45290193 Ry
     estimated scf accuracy    <       0.00191657 Ry

     iteration #  5     ecut=   100.00 Ry     beta= 0.70
     Davidson diagonalization with overlap
     ethr =  3.99E-06,  avg # of iterations =  2.8

     total cpu time spent up to now is       26.6 secs

     total energy              =    -156.45352862 Ry
     estimated scf accuracy    <       0.00017484 Ry

     iteration #  6     ecut=   100.00 Ry     beta= 0.70
     Davidson diagonalization with overlap
     ethr =  3.64E-07,  avg # of iterations =  4.0

     total cpu time spent up to now is       31.2 secs

     total energy              =    -156.45358307 Ry
     estimated scf accuracy    <       0.00000222 Ry

     iteration #  7     ecut=   100.00 Ry     beta= 0.70
     Davidson diagonalization with overlap
     ethr =  4.63E-09,  avg # of iterations =  7.5

     total cpu time spent up to now is       39.6 secs

     total energy              =    -156.45359127 Ry
     estimated scf accuracy    <       0.00000250 Ry

     iteration #  8     ecut=   100.00 Ry     beta= 0.70
     Davidson diagonalization with overlap
     ethr =  4.63E-09,  avg # of iterations =  2.0

     total cpu time spent up to now is       43.8 secs

     total energy              =    -156.45359172 Ry
     estimated scf accuracy    <       0.00000002 Ry

     iteration #  9     ecut=   100.00 Ry     beta= 0.70
     Davidson diagonalization with overlap
     ethr =  4.35E-11,  avg # of iterations =  5.9

     total cpu time spent up to now is       50.8 secs

     End of self-consistent calculation

          k = 0.0000 0.0000 0.0000 ( 27937 PWs)   bands (ev):

   -25.2032 -25.1989 -10.5634 -10.5273 -10.3897 -10.3791 -10.3308 -10.2902
    -6.6409  -5.8655  -5.5137  -5.3851  -2.2765  -1.4434  -1.4027  -1.0874
    -1.0236  -0.9829  -0.8918  -0.8683  -0.5635  -0.2130  -0.2114  -0.1492

          k = 0.0000 0.0000-0.7202 ( 27838 PWs)   bands (ev):

   -25.1945 -25.1945 -10.6071 -10.6071 -10.4282 -10.4282 -10.3966 -10.3965
    -5.7564  -5.7559  -5.6866  -5.6863  -1.8359  -1.8339  -1.7001  -1.6989
    -0.8976  -0.8950  -0.7859  -0.7853  -0.4399  -0.4398  -0.3525  -0.3480

          k = 0.0000-0.4831 0.0000 ( 27884 PWs)   bands (ev):

   -25.2010 -25.2010 -10.4875 -10.4875 -10.4518 -10.4518 -10.3104 -10.3104
    -6.1564  -6.1564  -5.6094  -5.6094  -1.7559  -1.7559  -1.1337  -1.1337
    -1.0219  -1.0219  -0.6592  -0.6592  -0.6115  -0.6115  -0.3395  -0.3395

          k = 0.0000-0.4831-0.7202 ( 27848 PWs)   bands (ev):

   -25.1945 -25.1945 -10.6312 -10.6312 -10.4063 -10.4063 -10.3900 -10.3900
    -5.9806  -5.9806  -5.4581  -5.4581  -2.0286  -2.0286  -1.4310  -1.4310
    -0.7947  -0.7947  -0.6482  -0.6482  -0.6413  -0.6413  -0.4372  -0.4372

          k =-0.5000 0.0000 0.0000 ( 27930 PWs)   bands (ev):

   -25.2010 -25.2010 -10.4807 -10.4807 -10.4622 -10.4622 -10.3104 -10.3104
    -6.1625  -6.1625  -5.5842  -5.5842  -1.7123  -1.7123  -1.0216  -1.0216
    -0.9014  -0.9014  -0.7969  -0.7969  -0.7627  -0.7627  -0.4238  -0.4238

          k =-0.5000 0.0000-0.7202 ( 27940 PWs)   bands (ev):

   -25.1945 -25.1945 -10.6341 -10.6341 -10.4078 -10.4078 -10.3903 -10.3903
    -5.8615  -5.8615  -5.5535  -5.5535  -2.2816  -2.2816  -1.2863  -1.2863
    -0.8034  -0.8034  -0.7865  -0.7865  -0.3975  -0.3975  -0.3613  -0.3613

          k =-0.5000-0.4831 0.0000 ( 27892 PWs)   bands (ev):

   -25.2010 -25.2010 -10.5644 -10.5644 -10.3750 -10.3750 -10.3102 -10.3102
    -6.1744  -6.1744  -5.5812  -5.5812  -1.6390  -1.6390  -1.2218  -1.2218
    -1.0784  -1.0784  -0.6386  -0.6386  -0.6017  -0.6017  -0.3709  -0.3709

          k =-0.5000-0.4831-0.7202 ( 27880 PWs)   bands (ev):

   -25.1945 -25.1945 -10.6046 -10.6046 -10.4339 -10.4339 -10.3990 -10.3990
    -5.7897  -5.7897  -5.6210  -5.6210  -2.1045  -2.1045  -1.7181  -1.7181
    -0.7526  -0.7526  -0.5238  -0.5238  -0.5142  -0.5142  -0.2422  -0.2422

     highest occupied level (ev):    -0.1492

!    total energy              =    -156.45359176 Ry
     estimated scf accuracy    <          5.5E-09 Ry

     The total energy is the sum of the following terms:
     one-electron contribution =     -35.60740655 Ry
     hartree contribution      =      30.32827472 Ry
     xc contribution           =     -48.96729666 Ry
     ewald contribution        =    -102.20716326 Ry

     convergence has been achieved in   9 iterations

     Writing all to output data dir ./pwscf.save/ :
     XML data file, charge density, pseudopotentials, collected wavefunctions

     init_run     :      2.78s CPU      3.60s WALL (       1 calls)
     electrons    :     46.56s CPU     47.00s WALL (       1 calls)

     Called by init_run:
     wfcinit      :      2.16s CPU      2.18s WALL (       1 calls)
     potinit      :      0.05s CPU      0.06s WALL (       1 calls)
     hinit0       :      0.34s CPU      1.12s WALL (       1 calls)

     Called by electrons:
     c_bands      :     40.93s CPU     41.25s WALL (       9 calls)
     sum_band     :      4.75s CPU      4.80s WALL (       9 calls)
     v_of_rho     :      0.37s CPU      0.41s WALL (      10 calls)
     newd         :      0.48s CPU      0.49s WALL (      10 calls)
     mix_rho      :      0.08s CPU      0.08s WALL (       9 calls)

     Called by c_bands:
     init_us_2    :      0.84s CPU      0.86s WALL (     152 calls)
     cegterg      :     39.56s CPU     39.86s WALL (      72 calls)

     Called by *egterg:
     cdiaghg      :      0.57s CPU      0.57s WALL (     338 calls)
     h_psi        :     27.81s CPU     28.06s WALL (     346 calls)
     s_psi        :      7.52s CPU      7.54s WALL (     346 calls)
     g_psi        :      0.09s CPU      0.09s WALL (     266 calls)

     Called by h_psi:
     h_psi:calbec :      7.70s CPU      7.72s WALL (     346 calls)
     vloc_psi     :     12.45s CPU     12.67s WALL (     346 calls)
     add_vuspsi   :      7.58s CPU      7.59s WALL (     346 calls)

     General routines
     calbec       :      9.77s CPU      9.80s WALL (     418 calls)
     fft          :      0.45s CPU      1.23s WALL (     110 calls)
     ffts         :      0.01s CPU      0.02s WALL (       9 calls)
     fftw         :     12.87s CPU     13.10s WALL (   14342 calls)

     Parallel routines

     PWSCF        :     49.75s CPU     51.19s WALL


   This run was terminated on:  21:35:12  27May2024            

=------------------------------------------------------------------------------=
   JOB DONE.
=------------------------------------------------------------------------------=
