
     Program PWSCF v.7.3.1 starts on 12Aug2024 at 11:12:54 

     This program is part of the open-source Quantum ESPRESSO suite
     for quantum simulation of materials; please cite
         "P. Giannozzi et al., J. Phys.:Condens. Matter 21 395502 (2009);
         "P. Giannozzi et al., J. Phys.:Condens. Matter 29 465901 (2017);
         "P. Giannozzi et al., J. Chem. Phys. 152 154105 (2020);
          URL http://www.quantum-espresso.org", 
     in publications or presentations arising from this work. More details at
     http://www.quantum-espresso.org/quote

     Parallel version (MPI), running on    24 processors

     MPI processes distributed on     1 nodes
     93673 MiB available memory on the printing compute node when the environment starts

     Waiting for input...
     Reading input from standard input

     Current dimensions of program PWSCF are:
     Max number of different atomic species (ntypx) = 10
     Max number of k-points (npk) =  40000
     Max angular momentum in pseudopotentials (lmaxx) =  4

     R & G space division:  proc/nbgrp/npool/nimage =      24
     Subspace diagonalization in iterative solution of the eigenvalue problem:
     a serial algorithm will be used


     Parallelization info
     --------------------
     sticks:   dense  smooth     PW     G-vecs:    dense   smooth      PW
     Min         465     233     62                24421     8638    1212
     Max         466     234     63                24424     8639    1215
     Sum       11181    5597   1489               586151   207331   29109

     Using Slab Decomposition


     Title: 
     pre-ph                                                                     


     bravais-lattice index     =            8
     lattice parameter (alat)  =      13.2392  a.u.
     unit-cell volume          =    1533.9930 (a.u.)^3
     number of atoms/cell      =           22
     number of atomic types    =            3
     number of electrons       =        48.00
     number of Kohn-Sham states=           24
     kinetic-energy cutoff     =     100.0000  Ry
     charge density cutoff     =     800.0000  Ry
     scf convergence threshold =      1.0E-10
     mixing beta               =       0.7000
     number of iterations used =            8  plain     mixing
     Exchange-correlation= PBESOL
                           (   1   4  10   8   0   0   0)

     celldm(1)=  13.239187  celldm(2)=   1.001705  celldm(3)=   0.659932
     celldm(4)=   0.000000  celldm(5)=   0.000000  celldm(6)=   0.000000

     crystal axes: (cart. coord. in units of alat)
               a(1) = (   1.000000   0.000000   0.000000 )  
               a(2) = (   0.000000   1.001705   0.000000 )  
               a(3) = (   0.000000   0.000000   0.659932 )  

     reciprocal axes: (cart. coord. in units 2 pi/alat)
               b(1) = (  1.000000  0.000000  0.000000 )  
               b(2) = (  0.000000  0.998297  0.000000 )  
               b(3) = (  0.000000  0.000000  1.515307 )  


     PseudoPot. # 1 for B  read from file:
     /home/mehlhorn/pseudos/b_pbesol_v1.4.uspp.F.UPF
     MD5 check sum: 369b69bef2c3aeed4453bd8b804fd6a8
     Pseudo is Ultrasoft + core correction, Zval =  3.0
     Generated by new atomic code, or converted to UPF format
     Using radial grid of  781 points,  4 beta functions with: 
                l(1) =   0
                l(2) =   0
                l(3) =   1
                l(4) =   1
     Q(r) pseudized with  8 coefficients,  rinner =    1.100   1.100   1.100


     PseudoPot. # 2 for Ba read from file:
     /home/mehlhorn/pseudos/Ba.nc.z_10.oncvpsp4.dojo.v4-sp.upf
     MD5 check sum: c10ed334bb677c0554edec7181ce9143
     Pseudo is Norm-conserving + core correction, Zval = 10.0
     Generated using ONCVPSP code by D. R. Hamann
     Using radial grid of 1938 points,  8 beta functions with: 
                l(1) =   0
                l(2) =   0
                l(3) =   1
                l(4) =   1
                l(5) =   2
                l(6) =   2
                l(7) =   3
                l(8) =   3

     PseudoPot. # 3 for H  read from file:
     /home/mehlhorn/pseudos/H_ONCV_PBEsol-1.0.upf
     MD5 check sum: 398ef8f67c0a7342c05c87c5e19ea467
     Pseudo is Norm-conserving, Zval =  1.0
     Generated using ONCVPSP code by D. R. Hamann
     Using radial grid of 1180 points,  2 beta functions with: 
                l(1) =   0
                l(2) =   0

     atomic species   valence    mass     pseudopotential
     B                 3.00    10.81100     B ( 1.00)
     Ba               10.00   137.32700     Ba( 1.00)
     H                 1.00     1.00794     H ( 1.00)

      4 Sym. Ops. (no inversion) found ( 2 have fractional translation)



   Cartesian axes

     site n.     atom                  positions (alat units)
         1        Ba     tau(   1) = (   0.5000000   0.5008527   0.3299706  )
         2        Ba     tau(   2) = (   0.0000000   0.0000000   0.6599279  )
         3        B      tau(   3) = (   0.6246453   0.2518284   0.0000043  )
         4        B      tau(   4) = (   0.3753547   0.7498771   0.0000043  )
         5        B      tau(   5) = (   0.1246453   0.2490243   0.3299618  )
         6        B      tau(   6) = (   0.8753547   0.7526812   0.3299618  )
         7        H      tau(   7) = (   0.4521950   0.2869609  -0.0000113  )
         8        H      tau(   8) = (   0.5478050   0.7147446  -0.0000113  )
         9        H      tau(   9) = (   0.9521950   0.2138918   0.3299775  )
        10        H      tau(  10) = (   0.0478050   0.7878137   0.3299775  )
        11        H      tau(  11) = (   0.7167338   0.4026431   0.0000043  )
        12        H      tau(  12) = (   0.2832662   0.5990624   0.0000043  )
        13        H      tau(  13) = (   0.2167338   0.0982097   0.3299619  )
        14        H      tau(  14) = (   0.7832662   0.9034958   0.3299619  )
        15        H      tau(  15) = (   0.6614431   0.1603257   0.5146572  )
        16        H      tau(  16) = (   0.3385569   0.8413797   0.5146572  )
        17        H      tau(  17) = (   0.1614431   0.3405270   0.4752413  )
        18        H      tau(  18) = (   0.8385569   0.6611785   0.4752413  )
        19        H      tau(  19) = (   0.3385645   0.8413788   0.1452874  )
        20        H      tau(  20) = (   0.6614355   0.1603267   0.1452874  )
        21        H      tau(  21) = (   0.8385645   0.6611795   0.1846788  )
        22        H      tau(  22) = (   0.1614355   0.3405260   0.1846788  )

     number of k points=    27
                       cart. coord. in units 2pi/alat
        k(    1) = (   0.0000000   0.0000000   0.0000000), wk =   0.0160000
        k(    2) = (   0.0000000   0.0000000   0.3030614), wk =   0.0320000
        k(    3) = (   0.0000000   0.0000000   0.6061227), wk =   0.0320000
        k(    4) = (   0.0000000   0.1996595   0.0000000), wk =   0.0320000
        k(    5) = (   0.0000000   0.1996595   0.3030614), wk =   0.0640000
        k(    6) = (   0.0000000   0.1996595   0.6061227), wk =   0.0640000
        k(    7) = (   0.0000000   0.3993190   0.0000000), wk =   0.0320000
        k(    8) = (   0.0000000   0.3993190   0.3030614), wk =   0.0640000
        k(    9) = (   0.0000000   0.3993190   0.6061227), wk =   0.0640000
        k(   10) = (   0.2000000   0.0000000   0.0000000), wk =   0.0320000
        k(   11) = (   0.2000000   0.0000000   0.3030614), wk =   0.0640000
        k(   12) = (   0.2000000   0.0000000   0.6061227), wk =   0.0640000
        k(   13) = (   0.2000000   0.1996595   0.0000000), wk =   0.0640000
        k(   14) = (   0.2000000   0.1996595   0.3030614), wk =   0.1280000
        k(   15) = (   0.2000000   0.1996595   0.6061227), wk =   0.1280000
        k(   16) = (   0.2000000   0.3993190   0.0000000), wk =   0.0640000
        k(   17) = (   0.2000000   0.3993190   0.3030614), wk =   0.1280000
        k(   18) = (   0.2000000   0.3993190   0.6061227), wk =   0.1280000
        k(   19) = (   0.4000000   0.0000000   0.0000000), wk =   0.0320000
        k(   20) = (   0.4000000   0.0000000   0.3030614), wk =   0.0640000
        k(   21) = (   0.4000000   0.0000000   0.6061227), wk =   0.0640000
        k(   22) = (   0.4000000   0.1996595   0.0000000), wk =   0.0640000
        k(   23) = (   0.4000000   0.1996595   0.3030614), wk =   0.1280000
        k(   24) = (   0.4000000   0.1996595   0.6061227), wk =   0.1280000
        k(   25) = (   0.4000000   0.3993190   0.0000000), wk =   0.0640000
        k(   26) = (   0.4000000   0.3993190   0.3030614), wk =   0.1280000
        k(   27) = (   0.4000000   0.3993190   0.6061227), wk =   0.1280000

     Dense  grid:   586151 G-vectors     FFT dimensions: ( 120, 120,  80)

     Smooth grid:   207331 G-vectors     FFT dimensions: (  90,  90,  60)

     Estimated max dynamical RAM per process >      69.96 MB

     Estimated total dynamical RAM >       1.64 GB

     Initial potential from superposition of free atoms

     starting charge      47.9682, renormalised to      48.0000
     Starting wfcs are   42 randomized atomic wfcs

     total cpu time spent up to now is       12.5 secs

     Self-consistent Calculation

     iteration #  1     ecut=   100.00 Ry     beta= 0.70
     Davidson diagonalization with overlap
     ethr =  1.00E-02,  avg # of iterations =  2.0

     total cpu time spent up to now is       29.7 secs

     total energy              =    -155.91362931 Ry
     estimated scf accuracy    <       2.14295775 Ry

     iteration #  2     ecut=   100.00 Ry     beta= 0.70
     Davidson diagonalization with overlap
     ethr =  4.46E-03,  avg # of iterations =  2.0

     total cpu time spent up to now is       46.2 secs

     total energy              =    -156.40426799 Ry
     estimated scf accuracy    <       0.37868317 Ry

     iteration #  3     ecut=   100.00 Ry     beta= 0.70
     Davidson diagonalization with overlap
     ethr =  7.89E-04,  avg # of iterations =  2.0

     total cpu time spent up to now is       62.8 secs

     total energy              =    -156.46788895 Ry
     estimated scf accuracy    <       0.00491598 Ry

     iteration #  4     ecut=   100.00 Ry     beta= 0.70
     Davidson diagonalization with overlap
     ethr =  1.02E-05,  avg # of iterations =  5.1

     total cpu time spent up to now is       86.7 secs

     total energy              =    -156.47091584 Ry
     estimated scf accuracy    <       0.00179253 Ry

     iteration #  5     ecut=   100.00 Ry     beta= 0.70
     Davidson diagonalization with overlap
     ethr =  3.73E-06,  avg # of iterations =  3.3

     total cpu time spent up to now is      120.2 secs

     total energy              =    -156.47153154 Ry
     estimated scf accuracy    <       0.00018407 Ry

     iteration #  6     ecut=   100.00 Ry     beta= 0.70
     Davidson diagonalization with overlap
     ethr =  3.83E-07,  avg # of iterations =  4.1

     total cpu time spent up to now is      139.5 secs

     total energy              =    -156.47160383 Ry
     estimated scf accuracy    <       0.00000119 Ry

     iteration #  7     ecut=   100.00 Ry     beta= 0.70
     Davidson diagonalization with overlap
     ethr =  2.48E-09,  avg # of iterations = 10.8

     total cpu time spent up to now is      184.3 secs

     total energy              =    -156.47161525 Ry
     estimated scf accuracy    <       0.00000090 Ry

     iteration #  8     ecut=   100.00 Ry     beta= 0.70
     Davidson diagonalization with overlap
     ethr =  1.88E-09,  avg # of iterations =  2.0

     total cpu time spent up to now is      200.7 secs

     total energy              =    -156.47161533 Ry
     estimated scf accuracy    <       0.00000007 Ry

     iteration #  9     ecut=   100.00 Ry     beta= 0.70
     Davidson diagonalization with overlap
     ethr =  1.39E-10,  avg # of iterations =  5.3

     total cpu time spent up to now is      221.9 secs

     total energy              =    -156.47161537 Ry
     estimated scf accuracy    <       0.00000001 Ry

     iteration # 10     ecut=   100.00 Ry     beta= 0.70
     Davidson diagonalization with overlap
     ethr =  2.10E-11,  avg # of iterations =  3.8

     total cpu time spent up to now is      240.4 secs

     End of self-consistent calculation

          k = 0.0000 0.0000 0.0000 ( 25815 PWs)   bands (ev):

   -24.4249 -24.4186  -9.9197  -9.8641  -9.6796  -9.6447  -9.5942  -9.5441
    -6.3461  -5.4881  -4.9235  -4.8369  -2.0560  -1.1217  -1.0984  -0.7617
    -0.6275  -0.4988  -0.4076  -0.3035  -0.0395   0.2367   0.2605   0.2847

          k = 0.0000 0.0000 0.3031 ( 25898 PWs)   bands (ev):

   -24.4197 -24.4146  -9.8596  -9.8156  -9.7745  -9.7478  -9.6658  -9.6400
    -6.0078  -5.2862  -5.0427  -4.9756  -1.7709  -1.4373  -1.0973  -0.9637
    -0.6767  -0.6018  -0.3393  -0.1988   0.0078   0.1142   0.1356   0.2476

          k = 0.0000 0.0000 0.6061 ( 25892 PWs)   bands (ev):

   -24.4106 -24.4087 -10.0311 -10.0260  -9.7370  -9.7175  -9.6615  -9.6500
    -5.3851  -5.2363  -5.2132  -5.0805  -1.6158  -1.4894  -1.4731  -1.2090
    -0.6117  -0.5978  -0.2870  -0.1744  -0.0235   0.0281   0.1104   0.1599

          k = 0.0000 0.1997 0.0000 ( 25878 PWs)   bands (ev):

   -24.4243 -24.4192  -9.9037  -9.8478  -9.7050  -9.6648  -9.5894  -9.5488
    -6.2379  -5.4648  -5.0601  -4.8936  -1.8697  -1.2650  -1.1609  -0.5716
    -0.5165  -0.4683  -0.4505  -0.2284  -0.0394   0.0497   0.2051   0.2344

          k = 0.0000 0.1997 0.3031 ( 25891 PWs)   bands (ev):

   -24.4192 -24.4151  -9.8576  -9.8018  -9.7685  -9.7615  -9.6661  -9.6533
    -5.9271  -5.2603  -5.1525  -5.0092  -1.6449  -1.4620  -1.2449  -0.7441
    -0.6153  -0.5599  -0.4961  -0.1302  -0.0012   0.1098   0.1169   0.1449

          k = 0.0000 0.1997 0.6061 ( 25907 PWs)   bands (ev):

   -24.4104 -24.4088 -10.0380 -10.0334  -9.7220  -9.7089  -9.6620  -9.6549
    -5.4875  -5.3818  -5.0828  -4.9576  -1.6619  -1.6067  -1.3669  -1.1400
    -0.5674  -0.4476  -0.3020  -0.1734  -0.0551  -0.0423   0.0864   0.1095

          k = 0.0000 0.3993 0.0000 ( 25920 PWs)   bands (ev):

   -24.4227 -24.4207  -9.8595  -9.8204  -9.7480  -9.7143  -9.5767  -9.5612
    -5.9494  -5.5928  -5.1683  -5.0341  -1.5661  -1.4295  -1.0192  -0.5398
    -0.5270  -0.4990  -0.2606  -0.1841  -0.1291  -0.0619   0.0740   0.1395

          k = 0.0000 0.3993 0.3031 ( 25924 PWs)   bands (ev):

   -24.4179 -24.4163  -9.8428  -9.8095  -9.7673  -9.7445  -9.6784  -9.6753
    -5.7084  -5.4170  -5.1873  -5.0925  -1.4929  -1.4923  -1.1731  -0.8184
    -0.5442  -0.4911  -0.3774  -0.1493  -0.0905  -0.0730   0.1282   0.1315

          k = 0.0000 0.3993 0.6061 ( 25896 PWs)   bands (ev):

   -24.4099 -24.4093 -10.0475 -10.0454  -9.6934  -9.6909  -9.6680  -9.6677
    -5.5629  -5.5253  -4.9330  -4.8804  -1.7295  -1.7210  -1.1679  -1.0506
    -0.4632  -0.3700  -0.2776  -0.2362  -0.1319  -0.0609  -0.0172   0.0883

          k = 0.2000 0.0000 0.0000 ( 25878 PWs)   bands (ev):

   -24.4243 -24.4192  -9.8995  -9.8511  -9.7015  -9.6709  -9.5894  -9.5488
    -6.2441  -5.5161  -4.9462  -4.9211  -1.9277  -1.0591  -1.0003  -0.9567
    -0.4670  -0.4302  -0.4055  -0.3093  -0.0842   0.0001   0.2206   0.2424

          k = 0.2000 0.0000 0.3031 ( 25877 PWs)   bands (ev):

   -24.4192 -24.4151  -9.8438  -9.8258  -9.7647  -9.7552  -9.6779  -9.6440
    -5.9220  -5.2948  -5.0607  -5.0530  -1.6843  -1.4248  -1.1946  -0.8324
    -0.6638  -0.5542  -0.4003  -0.1578  -0.1380   0.1010   0.1714   0.2058

          k = 0.2000 0.0000 0.6061 ( 25910 PWs)   bands (ev):

   -24.4104 -24.4088 -10.0395 -10.0350  -9.7271  -9.7041  -9.6667  -9.6507
    -5.4079  -5.2887  -5.1755  -5.0253  -1.8331  -1.6865  -1.2778  -1.0228
    -0.5629  -0.4406  -0.2723  -0.2242  -0.0444   0.0201   0.0472   0.1592

          k = 0.2000 0.1997 0.0000 ( 25883 PWs)   bands (ev):

   -24.4238 -24.4197  -9.9089  -9.8226  -9.7443  -9.6541  -9.5854  -9.5526
    -6.1588  -5.5118  -5.0809  -4.9214  -1.7734  -1.2510  -1.0713  -0.6967
    -0.5245  -0.4617  -0.2811  -0.2213  -0.1338  -0.0547   0.1321   0.2152

          k = 0.2000 0.1997 0.3031 ( 25901 PWs)   bands (ev):

   -24.4188 -24.4154  -9.8527  -9.8091  -9.7855  -9.7426  -9.6793  -9.6456
    -5.8544  -5.2744  -5.1858  -5.0420  -1.5935  -1.4408  -1.2710  -0.7309
    -0.6558  -0.5313  -0.3995  -0.1699  -0.1062   0.0618   0.1290   0.1888

          k = 0.2000 0.1997 0.6061 ( 25915 PWs)   bands (ev):

   -24.4103 -24.4090 -10.0458 -10.0304  -9.7333  -9.6881  -9.6713  -9.6535
    -5.4921  -5.3089  -5.1484  -4.9433  -1.8297  -1.6853  -1.2597  -1.0660
    -0.5136  -0.3865  -0.2834  -0.1688  -0.1174  -0.0014   0.0423   0.1596

          k = 0.2000 0.3993 0.0000 ( 25889 PWs)   bands (ev):

   -24.4225 -24.4209  -9.8952  -9.8484  -9.7246  -9.6729  -9.5751  -9.5626
    -5.9290  -5.6449  -5.1401  -5.0266  -1.5106  -1.3938  -0.9976  -0.5679
    -0.5675  -0.5415  -0.3525  -0.1043  -0.1020  -0.0426   0.0281   0.1162

          k = 0.2000 0.3993 0.3031 ( 25902 PWs)   bands (ev):

   -24.4177 -24.4165  -9.8505  -9.8261  -9.7729  -9.7422  -9.6738  -9.6551
    -5.6711  -5.4272  -5.1927  -5.1062  -1.5053  -1.4646  -1.1853  -0.8926
    -0.5260  -0.4404  -0.3707  -0.1757  -0.0838  -0.0146   0.0950   0.1293

          k = 0.2000 0.3993 0.6061 ( 25926 PWs)   bands (ev):

   -24.4099 -24.4094 -10.0446 -10.0354  -9.7222  -9.6963  -9.6657  -9.6572
    -5.5269  -5.4569  -4.9909  -4.9106  -1.8007  -1.7282  -1.1936  -1.1049
    -0.4883  -0.3829  -0.2401  -0.1304  -0.0953  -0.0224   0.0112   0.1126

          k = 0.4000 0.0000 0.0000 ( 25912 PWs)   bands (ev):

   -24.4227 -24.4207  -9.8482  -9.8203  -9.7492  -9.7288  -9.5768  -9.5613
    -5.9811  -5.6803  -5.0164  -4.9970  -1.6349  -1.3106  -0.8423  -0.6010
    -0.4869  -0.4069  -0.3989  -0.2940  -0.2450  -0.1929   0.0343   0.1272

          k = 0.4000 0.0000 0.3031 ( 25937 PWs)   bands (ev):

   -24.4179 -24.4163  -9.8254  -9.8105  -9.7904  -9.7545  -9.6834  -9.6602
    -5.6969  -5.4275  -5.1314  -5.1027  -1.5368  -1.3794  -1.2290  -0.8636
    -0.5851  -0.4423  -0.4380  -0.3326  -0.0806   0.0266   0.1459   0.1566

          k = 0.4000 0.0000 0.6061 ( 25894 PWs)   bands (ev):

   -24.4099 -24.4093 -10.0514 -10.0495  -9.7051  -9.6847  -9.6748  -9.6574
    -5.4179  -5.3777  -5.0692  -5.0039  -1.9761  -1.9148  -1.0290  -0.8795
    -0.4695  -0.3563  -0.3196  -0.2003  -0.1114   0.0274   0.0713   0.0998

          k = 0.4000 0.1997 0.0000 ( 25891 PWs)   bands (ev):

   -24.4225 -24.4209  -9.8927  -9.8457  -9.7288  -9.6766  -9.5752  -9.5626
    -5.9501  -5.6934  -5.0634  -4.9907  -1.5527  -1.3331  -0.8593  -0.6274
    -0.5157  -0.4831  -0.4575  -0.2506  -0.1746  -0.1046   0.0240   0.1456

          k = 0.4000 0.1997 0.3031 ( 25906 PWs)   bands (ev):

   -24.4177 -24.4165  -9.8452  -9.8243  -9.7830  -9.7488  -9.6721  -9.6512
    -5.6645  -5.4324  -5.1659  -5.1055  -1.5166  -1.3970  -1.2448  -0.9283
    -0.5306  -0.4273  -0.3688  -0.2696  -0.0927   0.0071   0.1102   0.1504

          k = 0.4000 0.1997 0.6061 ( 25937 PWs)   bands (ev):

   -24.4099 -24.4094 -10.0471 -10.0380  -9.7241  -9.6983  -9.6647  -9.6553
    -5.4400  -5.3329  -5.1053  -4.9866  -1.9391  -1.8793  -1.0777  -1.0087
    -0.4584  -0.3509  -0.3061  -0.2054  -0.0513   0.0123   0.0864   0.1658

          k = 0.4000 0.3993 0.0000 ( 25911 PWs)   bands (ev):

   -24.4220 -24.4214  -9.9194  -9.9012  -9.6704  -9.6484  -9.5711  -9.5663
    -5.8640  -5.7578  -5.0790  -5.0332  -1.3996  -1.3452  -0.9240  -0.7472
    -0.5930  -0.5795  -0.3508  -0.1746  -0.0540  -0.0275   0.0181   0.0864

          k = 0.4000 0.3993 0.3031 ( 25901 PWs)   bands (ev):

   -24.4173 -24.4168  -9.8609  -9.8523  -9.7661  -9.7521  -9.6512  -9.6423
    -5.5795  -5.4818  -5.1804  -5.1419  -1.4808  -1.4313  -1.2180  -1.0812
    -0.3948  -0.3695  -0.2877  -0.1807  -0.1014  -0.0167   0.0338   0.1018

          k = 0.4000 0.3993 0.6061 ( 25924 PWs)   bands (ev):

   -24.4097 -24.4095 -10.0323 -10.0260  -9.7396  -9.7263  -9.6564  -9.6544
    -5.4177  -5.3542  -5.0772  -5.0094  -1.8452  -1.8072  -1.2357  -1.2083
    -0.4089  -0.3399  -0.1733  -0.1610  -0.0386  -0.0294   0.1339   0.1705

     highest occupied level (ev):     0.2847

!    total energy              =    -156.47161537 Ry
     estimated scf accuracy    <          9.2E-11 Ry

     The total energy is the sum of the following terms:
     one-electron contribution =     -30.07258030 Ry
     hartree contribution      =      28.54232255 Ry
     xc contribution           =     -49.06362298 Ry
     ewald contribution        =    -105.87773465 Ry

     convergence has been achieved in  10 iterations

     Writing all to output data dir ./pwscf.save/ :
     XML data file, charge density, pseudopotentials, collected wavefunctions

     init_run     :     10.61s CPU     12.14s WALL (       1 calls)
     electrons    :    223.81s CPU    228.00s WALL (       1 calls)

     Called by init_run:
     wfcinit      :      8.15s CPU      8.20s WALL (       1 calls)
     potinit      :      0.55s CPU      1.06s WALL (       1 calls)
     hinit0       :      1.02s CPU      1.92s WALL (       1 calls)

     Called by electrons:
     c_bands      :    200.81s CPU    204.51s WALL (      10 calls)
     sum_band     :     19.60s CPU     19.94s WALL (      10 calls)
     v_of_rho     :      1.31s CPU      1.36s WALL (      11 calls)
     newd         :      2.00s CPU      2.06s WALL (      11 calls)
     mix_rho      :      0.20s CPU      0.21s WALL (      10 calls)

     Called by c_bands:
     init_us_2    :      3.77s CPU      3.83s WALL (     567 calls)
     cegterg      :    182.92s CPU    186.49s WALL (     270 calls)

     Called by *egterg:
     cdiaghg      :      2.68s CPU      2.71s WALL (    1360 calls)
     h_psi        :    135.40s CPU    138.65s WALL (    1387 calls)
     s_psi        :     22.50s CPU     22.63s WALL (    1387 calls)
     g_psi        :      0.39s CPU      0.39s WALL (    1090 calls)

     Called by h_psi:
     h_psi:calbec :     20.83s CPU     20.99s WALL (    1387 calls)
     vloc_psi     :     91.63s CPU     94.62s WALL (    1387 calls)
     add_vuspsi   :     22.57s CPU     22.68s WALL (    1387 calls)

     General routines
     calbec       :     26.23s CPU     26.41s WALL (    1657 calls)
     fft          :      1.61s CPU      2.55s WALL (     141 calls)
     ffts         :      0.46s CPU      0.95s WALL (      21 calls)
     fftw         :     89.07s CPU     92.06s WALL (   54624 calls)
     interpolate  :      0.49s CPU      0.99s WALL (      11 calls)

     Parallel routines

     PWSCF        :   3m55.32s CPU   4m 1.80s WALL


   This run was terminated on:  11:16:55  12Aug2024            

=------------------------------------------------------------------------------=
   JOB DONE.
=------------------------------------------------------------------------------=
