
     Program PWSCF v.7.3.1 starts on  6Aug2024 at 14:42:27 

     This program is part of the open-source Quantum ESPRESSO suite
     for quantum simulation of materials; please cite
         "P. Giannozzi et al., J. Phys.:Condens. Matter 21 395502 (2009);
         "P. Giannozzi et al., J. Phys.:Condens. Matter 29 465901 (2017);
         "P. Giannozzi et al., J. Chem. Phys. 152 154105 (2020);
          URL http://www.quantum-espresso.org", 
     in publications or presentations arising from this work. More details at
     http://www.quantum-espresso.org/quote

     Parallel version (MPI), running on    24 processors

     MPI processes distributed on     1 nodes
     93688 MiB available memory on the printing compute node when the environment starts

     Waiting for input...
     Reading input from standard input

     Current dimensions of program PWSCF are:
     Max number of different atomic species (ntypx) = 10
     Max number of k-points (npk) =  40000
     Max angular momentum in pseudopotentials (lmaxx) =  4

     R & G space division:  proc/nbgrp/npool/nimage =      24
     Subspace diagonalization in iterative solution of the eigenvalue problem:
     a serial algorithm will be used


     Parallelization info
     --------------------
     sticks:   dense  smooth     PW     G-vecs:    dense   smooth      PW
     Min         454     227     62                24424     8629    1244
     Max         456     228     64                24427     8631    1245
     Sum       10919    5451   1503               586219   207135   29867

     Using Slab Decomposition


     Title: 
     volume variation                                                           


     bravais-lattice index     =            8
     lattice parameter (alat)  =      12.9271  a.u.
     unit-cell volume          =    1533.9931 (a.u.)^3
     number of atoms/cell      =           22
     number of atomic types    =            3
     number of electrons       =        48.00
     number of Kohn-Sham states=           24
     kinetic-energy cutoff     =     100.0000  Ry
     charge density cutoff     =     800.0000  Ry
     scf convergence threshold =      1.0E-10
     mixing beta               =       0.7000
     number of iterations used =            8  plain     mixing
     energy convergence thresh.=      1.0E-05
     force convergence thresh. =      1.0E-05
     press convergence thresh. =      5.0E-01
     Exchange-correlation= PBESOL
                           (   1   4  10   8   0   0   0)
     nstep                     =          300


     celldm(1)=  12.927110  celldm(2)=   1.025571  celldm(3)=   0.692394
     celldm(4)=   0.000000  celldm(5)=   0.000000  celldm(6)=   0.000000

     crystal axes: (cart. coord. in units of alat)
               a(1) = (   1.000000   0.000000   0.000000 )  
               a(2) = (   0.000000   1.025571   0.000000 )  
               a(3) = (   0.000000   0.000000   0.692394 )  

     reciprocal axes: (cart. coord. in units 2 pi/alat)
               b(1) = (  1.000000  0.000000  0.000000 )  
               b(2) = (  0.000000  0.975067  0.000000 )  
               b(3) = (  0.000000  0.000000  1.444264 )  


     PseudoPot. # 1 for B  read from file:
     /home/mehlhorn/pseudos/b_pbesol_v1.4.uspp.F.UPF
     MD5 check sum: 369b69bef2c3aeed4453bd8b804fd6a8
     Pseudo is Ultrasoft + core correction, Zval =  3.0
     Generated by new atomic code, or converted to UPF format
     Using radial grid of  781 points,  4 beta functions with: 
                l(1) =   0
                l(2) =   0
                l(3) =   1
                l(4) =   1
     Q(r) pseudized with  8 coefficients,  rinner =    1.100   1.100   1.100


     PseudoPot. # 2 for Ba read from file:
     /home/mehlhorn/pseudos/Ba.nc.z_10.oncvpsp4.dojo.v4-sp.upf
     MD5 check sum: c10ed334bb677c0554edec7181ce9143
     Pseudo is Norm-conserving + core correction, Zval = 10.0
     Generated using ONCVPSP code by D. R. Hamann
     Using radial grid of 1938 points,  8 beta functions with: 
                l(1) =   0
                l(2) =   0
                l(3) =   1
                l(4) =   1
                l(5) =   2
                l(6) =   2
                l(7) =   3
                l(8) =   3

     PseudoPot. # 3 for H  read from file:
     /home/mehlhorn/pseudos/H_ONCV_PBEsol-1.0.upf
     MD5 check sum: 398ef8f67c0a7342c05c87c5e19ea467
     Pseudo is Norm-conserving, Zval =  1.0
     Generated using ONCVPSP code by D. R. Hamann
     Using radial grid of 1180 points,  2 beta functions with: 
                l(1) =   0
                l(2) =   0

     atomic species   valence    mass     pseudopotential
     B                 3.00    10.81100     B ( 1.00)
     Ba               10.00   137.32700     Ba( 1.00)
     H                 1.00     1.00794     H ( 1.00)

      4 Sym. Ops. (no inversion) found ( 2 have fractional translation)



   Cartesian axes

     site n.     atom                  positions (alat units)
         1        Ba     tau(   1) = (   0.5000000   0.5127855   0.3462657  )
         2        Ba     tau(   2) = (   0.0000000   0.0000000   0.6923255  )
         3        B      tau(   3) = (   0.6102570   0.2453190   0.0000455  )
         4        B      tau(   4) = (   0.3897430   0.7802519   0.0000455  )
         5        B      tau(   5) = (   0.1102570   0.2674665   0.3461516  )
         6        B      tau(   6) = (   0.8897430   0.7581045   0.3461516  )
         7        H      tau(   7) = (   0.4340973   0.2996264   0.0001599  )
         8        H      tau(   8) = (   0.5659027   0.7259445   0.0001599  )
         9        H      tau(   9) = (   0.9340973   0.2131590   0.3460372  )
        10        H      tau(  10) = (   0.0659027   0.8124119   0.3460372  )
        11        H      tau(  11) = (   0.7220603   0.3933629  -0.0000058  )
        12        H      tau(  12) = (   0.2779397   0.6322081  -0.0000058  )
        13        H      tau(  13) = (   0.2220603   0.1194226   0.3462029  )
        14        H      tau(  14) = (   0.7779397   0.9061483   0.3462029  )
        15        H      tau(  15) = (   0.6392499   0.1457279   0.5404125  )
        16        H      tau(  16) = (   0.3607501   0.8798430   0.5404125  )
        17        H      tau(  17) = (   0.1392499   0.3670576   0.4981787  )
        18        H      tau(  18) = (   0.8607501   0.6585133   0.4981787  )
        19        H      tau(  19) = (   0.3605328   0.8798946   0.1519977  )
        20        H      tau(  20) = (   0.6394672   0.1456763   0.1519977  )
        21        H      tau(  21) = (   0.8605328   0.6584617   0.1941994  )
        22        H      tau(  22) = (   0.1394672   0.3671092   0.1941994  )

     number of k points=    27
                       cart. coord. in units 2pi/alat
        k(    1) = (   0.0000000   0.0000000   0.0000000), wk =   0.0312500
        k(    2) = (   0.0000000   0.0000000   0.3610660), wk =   0.0625000
        k(    3) = (   0.0000000   0.0000000  -0.7221320), wk =   0.0312500
        k(    4) = (   0.0000000   0.2437667   0.0000000), wk =   0.0625000
        k(    5) = (   0.0000000   0.2437667   0.3610660), wk =   0.1250000
        k(    6) = (   0.0000000   0.2437667  -0.7221320), wk =   0.0625000
        k(    7) = (   0.0000000  -0.4875333   0.0000000), wk =   0.0312500
        k(    8) = (   0.0000000  -0.4875333   0.3610660), wk =   0.0625000
        k(    9) = (   0.0000000  -0.4875333  -0.7221320), wk =   0.0312500
        k(   10) = (   0.2500000   0.0000000   0.0000000), wk =   0.0625000
        k(   11) = (   0.2500000   0.0000000   0.3610660), wk =   0.1250000
        k(   12) = (   0.2500000   0.0000000  -0.7221320), wk =   0.0625000
        k(   13) = (   0.2500000   0.2437667   0.0000000), wk =   0.1250000
        k(   14) = (   0.2500000   0.2437667   0.3610660), wk =   0.2500000
        k(   15) = (   0.2500000   0.2437667  -0.7221320), wk =   0.1250000
        k(   16) = (   0.2500000  -0.4875333   0.0000000), wk =   0.0625000
        k(   17) = (   0.2500000  -0.4875333   0.3610660), wk =   0.1250000
        k(   18) = (   0.2500000  -0.4875333  -0.7221320), wk =   0.0625000
        k(   19) = (  -0.5000000   0.0000000   0.0000000), wk =   0.0312500
        k(   20) = (  -0.5000000   0.0000000   0.3610660), wk =   0.0625000
        k(   21) = (  -0.5000000   0.0000000  -0.7221320), wk =   0.0312500
        k(   22) = (  -0.5000000   0.2437667   0.0000000), wk =   0.0625000
        k(   23) = (  -0.5000000   0.2437667   0.3610660), wk =   0.1250000
        k(   24) = (  -0.5000000   0.2437667  -0.7221320), wk =   0.0625000
        k(   25) = (  -0.5000000  -0.4875333   0.0000000), wk =   0.0312500
        k(   26) = (  -0.5000000  -0.4875333   0.3610660), wk =   0.0625000
        k(   27) = (  -0.5000000  -0.4875333  -0.7221320), wk =   0.0312500

     Dense  grid:   586219 G-vectors     FFT dimensions: ( 120, 120,  90)

     Smooth grid:   207135 G-vectors     FFT dimensions: (  90,  90,  60)

     Estimated max dynamical RAM per process >      94.87 MB

     Estimated total dynamical RAM >       2.22 GB

     Initial potential from superposition of free atoms

     starting charge      47.9682, renormalised to      48.0000
     Starting wfcs are   42 randomized atomic wfcs

     total cpu time spent up to now is       12.9 secs

     Self-consistent Calculation

     iteration #  1     ecut=   100.00 Ry     beta= 0.70
     Davidson diagonalization with overlap
     ethr =  1.00E-02,  avg # of iterations =  2.0

     total cpu time spent up to now is       30.0 secs

     total energy              =    -155.95508446 Ry
     estimated scf accuracy    <       1.92813366 Ry

     iteration #  2     ecut=   100.00 Ry     beta= 0.70
     Davidson diagonalization with overlap
     ethr =  4.02E-03,  avg # of iterations =  2.0

     total cpu time spent up to now is       46.8 secs

     total energy              =    -156.39574217 Ry
     estimated scf accuracy    <       0.36174586 Ry

     iteration #  3     ecut=   100.00 Ry     beta= 0.70
     Davidson diagonalization with overlap
     ethr =  7.54E-04,  avg # of iterations =  2.0

     total cpu time spent up to now is       63.5 secs

     total energy              =    -156.45643423 Ry
     estimated scf accuracy    <       0.00463873 Ry

     iteration #  4     ecut=   100.00 Ry     beta= 0.70
     Davidson diagonalization with overlap
     ethr =  9.66E-06,  avg # of iterations =  5.1

     total cpu time spent up to now is       87.7 secs

     total energy              =    -156.45922758 Ry
     estimated scf accuracy    <       0.00181581 Ry

     iteration #  5     ecut=   100.00 Ry     beta= 0.70
     Davidson diagonalization with overlap
     ethr =  3.78E-06,  avg # of iterations =  2.9

     total cpu time spent up to now is      105.0 secs

     total energy              =    -156.45984630 Ry
     estimated scf accuracy    <       0.00018691 Ry

     iteration #  6     ecut=   100.00 Ry     beta= 0.70
     Davidson diagonalization with overlap
     ethr =  3.89E-07,  avg # of iterations =  4.1

     total cpu time spent up to now is      124.0 secs

     total energy              =    -156.45991110 Ry
     estimated scf accuracy    <       0.00000154 Ry

     iteration #  7     ecut=   100.00 Ry     beta= 0.70
     Davidson diagonalization with overlap
     ethr =  3.21E-09,  avg # of iterations =  8.8

     total cpu time spent up to now is      161.6 secs

     total energy              =    -156.45992313 Ry
     estimated scf accuracy    <       0.00000128 Ry

     iteration #  8     ecut=   100.00 Ry     beta= 0.70
     Davidson diagonalization with overlap
     ethr =  2.67E-09,  avg # of iterations =  2.0

     total cpu time spent up to now is      178.3 secs

     total energy              =    -156.45992338 Ry
     estimated scf accuracy    <       0.00000002 Ry

     iteration #  9     ecut=   100.00 Ry     beta= 0.70
     Davidson diagonalization with overlap
     ethr =  3.76E-11,  avg # of iterations =  6.0

     total cpu time spent up to now is      204.3 secs

     total energy              =    -156.45992341 Ry
     estimated scf accuracy    <          3.1E-09 Ry

     iteration # 10     ecut=   100.00 Ry     beta= 0.70
     Davidson diagonalization with overlap
     ethr =  6.42E-12,  avg # of iterations =  3.2

     total cpu time spent up to now is      223.4 secs

     total energy              =    -156.45992341 Ry
     estimated scf accuracy    <          3.0E-10 Ry

     iteration # 11     ecut=   100.00 Ry     beta= 0.70
     Davidson diagonalization with overlap
     ethr =  6.35E-13,  avg # of iterations =  4.9

     total cpu time spent up to now is      244.9 secs

     End of self-consistent calculation

          k = 0.0000 0.0000 0.0000 ( 25883 PWs)   bands (ev):

   -24.4903 -24.4841  -9.9153  -9.8513  -9.7049  -9.6770  -9.6429  -9.5951
    -6.1786  -5.2745  -4.7481  -4.5798  -1.9288  -1.0567  -1.0348  -0.6462
    -0.3090  -0.2998  -0.2902  -0.1297   0.0139   0.3978   0.4278   0.4672

          k = 0.0000 0.0000 0.3611 ( 25922 PWs)   bands (ev):

   -24.4847 -24.4803  -9.8426  -9.8361  -9.8143  -9.8002  -9.6921  -9.6770
    -5.7526  -5.0732  -4.8735  -4.7603  -1.5955  -1.3472  -0.8875  -0.8202
    -0.7032  -0.6025  -0.2571   0.0106   0.2260   0.2342   0.3008   0.4504

          k = 0.0000 0.0000-0.7221 ( 25900 PWs)   bands (ev):

   -24.4778 -24.4778 -10.0072 -10.0070  -9.7322  -9.7322  -9.7030  -9.7029
    -5.1082  -5.1076  -4.9736  -4.9731  -1.3517  -1.3513  -1.3329  -1.3314
    -0.3101  -0.3096  -0.2884  -0.2864   0.2571   0.2573   0.2827   0.2833

          k = 0.0000 0.2438 0.0000 ( 25926 PWs)   bands (ev):

   -24.4894 -24.4850  -9.8922  -9.8285  -9.7421  -9.7028  -9.6357  -9.6019
    -6.0053  -5.2016  -4.9971  -4.6885  -1.6014  -1.2213  -1.1215  -0.4039
    -0.3944  -0.3582  -0.0941   0.0092   0.0971   0.1029   0.3188   0.4002

          k = 0.0000 0.2438 0.3611 ( 25909 PWs)   bands (ev):

   -24.4840 -24.4809  -9.8726  -9.8388  -9.7851  -9.7798  -9.6972  -9.6928
    -5.6508  -5.1360  -4.9209  -4.8021  -1.4132  -1.3712  -1.1476  -0.6294
    -0.5841  -0.3889  -0.3841   0.0566   0.1514   0.1780   0.2840   0.3419

          k = 0.0000 0.2438-0.7221 ( 25912 PWs)   bands (ev):

   -24.4778 -24.4778 -10.0180 -10.0179  -9.7189  -9.7189  -9.7023  -9.7023
    -5.3057  -5.3056  -4.7701  -4.7700  -1.4476  -1.4470  -1.1865  -1.1858
    -0.2489  -0.2481  -0.2438  -0.2429   0.1082   0.1083   0.2768   0.2771

          k = 0.0000-0.4875 0.0000 ( 25878 PWs)   bands (ev):

   -24.4872 -24.4872  -9.8295  -9.8295  -9.7617  -9.7617  -9.6187  -9.6187
    -5.5619  -5.5619  -4.9328  -4.9328  -1.3321  -1.3321  -0.6866  -0.6866
    -0.4652  -0.4652   0.0197   0.0197   0.1261   0.1261   0.2630   0.2630

          k = 0.0000-0.4875 0.3611 ( 25910 PWs)   bands (ev):

   -24.4825 -24.4825  -9.8699  -9.8699  -9.7484  -9.7484  -9.7171  -9.7171
    -5.3940  -5.3940  -4.8848  -4.8848  -1.3515  -1.3515  -0.9399  -0.9399
    -0.3632  -0.3632  -0.0918  -0.0918   0.0685   0.0685   0.2662   0.2662

          k = 0.0000-0.4875-0.7221 ( 25860 PWs)   bands (ev):

   -24.4777 -24.4777 -10.0280 -10.0280  -9.7092  -9.7092  -9.6989  -9.6989
    -5.4082  -5.4082  -4.6619  -4.6619  -1.5278  -1.5278  -0.9794  -0.9794
    -0.3061  -0.3061  -0.1663  -0.1663  -0.0689  -0.0689   0.3124   0.3124

          k = 0.2500 0.0000 0.0000 ( 25923 PWs)   bands (ev):

   -24.4894 -24.4850  -9.8859  -9.8359  -9.7363  -9.7134  -9.6357  -9.6019
    -6.0125  -5.3289  -4.7718  -4.7109  -1.7503  -0.9569  -0.9298  -0.7738
    -0.2934  -0.2402  -0.1783  -0.1102  -0.0204   0.0036   0.3718   0.4163

          k = 0.2500 0.0000 0.3611 ( 25884 PWs)   bands (ev):

   -24.4840 -24.4809  -9.8644  -9.8482  -9.8082  -9.7605  -9.7100  -9.6828
    -5.6183  -5.0783  -4.8953  -4.8746  -1.5642  -1.3171  -1.1696  -0.6817
    -0.6351  -0.4104  -0.1760  -0.0459   0.0680   0.2034   0.3857   0.4021

          k = 0.2500 0.0000-0.7221 ( 25882 PWs)   bands (ev):

   -24.4777 -24.4777 -10.0212 -10.0211  -9.7230  -9.7229  -9.6999  -9.6998
    -5.1253  -5.1249  -4.9317  -4.9314  -1.7847  -1.7842  -0.9404  -0.9400
    -0.3234  -0.3231  -0.0475  -0.0460   0.0859   0.0860   0.3195   0.3198

          k = 0.2500 0.2438 0.0000 ( 25915 PWs)   bands (ev):

   -24.4887 -24.4856  -9.9062  -9.8168  -9.7739  -9.6817  -9.6306  -9.6067
    -5.8801  -5.2941  -4.9740  -4.7582  -1.4830  -1.1769  -0.9437  -0.5052
    -0.4360  -0.3953  -0.1082   0.0186   0.0501   0.1068   0.1979   0.3303

          k = 0.2500 0.2438 0.3611 ( 25883 PWs)   bands (ev):

   -24.4836 -24.4814  -9.8648  -9.8364  -9.8350  -9.7470  -9.7154  -9.6790
    -5.5321  -5.0939  -4.9963  -4.8768  -1.5220  -1.2773  -1.2018  -0.6739
    -0.4988  -0.3436  -0.2361  -0.0363   0.0613   0.1705   0.3060   0.3837

          k = 0.2500 0.2438-0.7221 ( 25908 PWs)   bands (ev):

   -24.4777 -24.4777 -10.0269 -10.0091  -9.7372  -9.7099  -9.7050  -9.7006
    -5.3036  -5.1681  -4.8842  -4.7464  -1.7606  -1.6961  -0.9944  -0.9274
    -0.3638  -0.3613  -0.0717  -0.0279   0.1219   0.1412   0.2662   0.3098

          k = 0.2500-0.4875 0.0000 ( 25900 PWs)   bands (ev):

   -24.4872 -24.4872  -9.8860  -9.8860  -9.7069  -9.7069  -9.6184  -9.6184
    -5.5418  -5.5418  -4.9492  -4.9492  -1.2304  -1.2304  -0.6997  -0.6997
    -0.4962  -0.4962  -0.0439  -0.0439   0.1563   0.1563   0.1982   0.1982

          k = 0.2500-0.4875 0.3611 ( 25924 PWs)   bands (ev):

   -24.4825 -24.4825  -9.8623  -9.8623  -9.7895  -9.7895  -9.6887  -9.6887
    -5.3145  -5.3145  -4.9509  -4.9509  -1.4278  -1.4278  -0.8940  -0.8940
    -0.3641  -0.3641  -0.0619  -0.0619   0.0681   0.0681   0.2813   0.2813

          k = 0.2500-0.4875-0.7221 ( 25932 PWs)   bands (ev):

   -24.4777 -24.4777 -10.0155 -10.0155  -9.7246  -9.7246  -9.7046  -9.7046
    -5.3204  -5.3204  -4.7251  -4.7251  -1.6615  -1.6615  -1.0267  -1.0267
    -0.2613  -0.2613  -0.1434  -0.1434   0.1196   0.1196   0.2972   0.2972

          k =-0.5000 0.0000 0.0000 ( 25934 PWs)   bands (ev):

   -24.4872 -24.4872  -9.8157  -9.8157  -9.7813  -9.7813  -9.6187  -9.6187
    -5.6261  -5.6261  -4.8043  -4.8043  -1.3534  -1.3534  -0.5949  -0.5949
    -0.2544  -0.2544  -0.2183  -0.2183  -0.1249  -0.1249   0.2774   0.2774

          k =-0.5000 0.0000 0.3611 ( 25846 PWs)   bands (ev):

   -24.4825 -24.4825  -9.8715  -9.8715  -9.7642  -9.7642  -9.7073  -9.7073
    -5.3002  -5.3002  -4.9364  -4.9364  -1.4793  -1.4793  -0.9451  -0.9451
    -0.3676  -0.3676  -0.1874  -0.1874   0.1665   0.1665   0.3692   0.3692

          k =-0.5000 0.0000-0.7221 ( 25880 PWs)   bands (ev):

   -24.4777 -24.4777 -10.0342 -10.0342  -9.7162  -9.7162  -9.6952  -9.6952
    -5.1404  -5.1404  -4.8901  -4.8901  -1.9828  -1.9828  -0.6920  -0.6920
    -0.3363  -0.3363  -0.1648  -0.1648   0.2505   0.2505   0.2945   0.2945

          k =-0.5000 0.2438 0.0000 ( 25894 PWs)   bands (ev):

   -24.4872 -24.4872  -9.8850  -9.8850  -9.7108  -9.7108  -9.6184  -9.6184
    -5.5795  -5.5795  -4.8796  -4.8796  -1.2494  -1.2494  -0.6016  -0.6016
    -0.4339  -0.4339  -0.2529  -0.2529   0.0738   0.0738   0.2533   0.2533

          k =-0.5000 0.2438 0.3611 ( 25894 PWs)   bands (ev):

   -24.4824 -24.4824  -9.8633  -9.8633  -9.7934  -9.7934  -9.6877  -9.6877
    -5.2539  -5.2539  -4.9902  -4.9902  -1.4811  -1.4811  -0.9260  -0.9260
    -0.3319  -0.3319  -0.1400  -0.1400   0.1590   0.1590   0.3041   0.3041

          k =-0.5000 0.2438-0.7221 ( 25876 PWs)   bands (ev):

   -24.4777 -24.4777 -10.0189 -10.0189  -9.7267  -9.7267  -9.7039  -9.7039
    -5.1764  -5.1764  -4.8491  -4.8491  -1.8946  -1.8946  -0.8765  -0.8765
    -0.2927  -0.2927  -0.1066  -0.1066   0.2104   0.2104   0.3387   0.3387

          k =-0.5000-0.4875 0.0000 ( 25912 PWs)   bands (ev):

   -24.4871 -24.4871  -9.9192  -9.9192  -9.6752  -9.6752  -9.6182  -9.6182
    -5.5220  -5.5220  -4.9647  -4.9647  -1.0960  -1.0960  -0.7520  -0.7520
    -0.5245  -0.5245  -0.0617  -0.0617   0.0932   0.0932   0.1838   0.1838

          k =-0.5000-0.4875 0.3611 ( 25916 PWs)   bands (ev):

   -24.4824 -24.4824  -9.8489  -9.8489  -9.8213  -9.8213  -9.6754  -9.6754
    -5.1708  -5.1708  -5.0806  -5.0806  -1.4641  -1.4641  -0.9722  -0.9722
    -0.1902  -0.1902  -0.0486  -0.0486   0.0876   0.0876   0.1981   0.1981

          k =-0.5000-0.4875-0.7221 ( 25888 PWs)   bands (ev):

   -24.4777 -24.4777 -10.0016 -10.0016  -9.7426  -9.7426  -9.7091  -9.7091
    -5.2055  -5.2055  -4.8149  -4.8149  -1.7561  -1.7561  -1.1404  -1.1404
    -0.0895  -0.0895  -0.0402  -0.0402   0.1025   0.1025   0.3073   0.3073

     highest occupied level (ev):     0.4672

!    total energy              =    -156.45992341 Ry
     estimated scf accuracy    <          5.0E-11 Ry

     The total energy is the sum of the following terms:
     one-electron contribution =     -25.37006857 Ry
     hartree contribution      =      26.18085935 Ry
     xc contribution           =     -48.78228113 Ry
     ewald contribution        =    -108.48843306 Ry

     convergence has been achieved in  11 iterations

     Forces acting on atoms (cartesian axes, Ry/au):

     atom    1 type  2   force =     0.00000000    0.00000000    0.00000939
     atom    2 type  2   force =     0.00000000    0.00000000   -0.00000939
     atom    3 type  1   force =     0.00040564    0.00206259   -0.00001532
     atom    4 type  1   force =    -0.00040564   -0.00206259   -0.00001532
     atom    5 type  1   force =     0.00040564   -0.00206259    0.00001532
     atom    6 type  1   force =    -0.00040564    0.00206259    0.00001532
     atom    7 type  3   force =     0.01843633   -0.00469682   -0.00002196
     atom    8 type  3   force =    -0.01843633    0.00469682   -0.00002196
     atom    9 type  3   force =     0.01843633    0.00469682    0.00002196
     atom   10 type  3   force =    -0.01843633   -0.00469682    0.00002196
     atom   11 type  3   force =    -0.01217899   -0.01475263    0.00000868
     atom   12 type  3   force =     0.01217899    0.01475263    0.00000868
     atom   13 type  3   force =    -0.01217899    0.01475263   -0.00000868
     atom   14 type  3   force =     0.01217899   -0.01475263   -0.00000868
     atom   15 type  3   force =    -0.00228225    0.01083945    0.01646076
     atom   16 type  3   force =     0.00228225   -0.01083945    0.01646076
     atom   17 type  3   force =    -0.00228225   -0.01083945   -0.01646076
     atom   18 type  3   force =     0.00228225    0.01083945   -0.01646076
     atom   19 type  3   force =     0.00234310   -0.01085960   -0.01646494
     atom   20 type  3   force =    -0.00234310    0.01085960   -0.01646494
     atom   21 type  3   force =     0.00234310    0.01085960    0.01646494
     atom   22 type  3   force =    -0.00234310   -0.01085960    0.01646494

     Total force =     0.077988     Total SCF correction =     0.000004


     Computing stress (Cartesian axis) and pressure

          total   stress  (Ry/bohr**3)                   (kbar)     P=      -39.00
  -0.00024706   0.00000000   0.00000000          -36.34        0.00        0.00
   0.00000000  -0.00025188   0.00000000            0.00      -37.05        0.00
   0.00000000   0.00000000  -0.00029646            0.00        0.00      -43.61

     Volume is kept fixed: isostatic pressure set to zero

     BFGS Geometry Optimization
     Energy error            =      0.0E+00 Ry
     Gradient error          =      1.8E-02 Ry/Bohr
     Cell gradient error     =      4.6E+00 kbar

     number of scf cycles    =   1
     number of bfgs steps    =   0

     enthalpy           new  =    -156.4599234116 Ry

     new trust radius        =       0.0198624030 bohr
ibrav =      8
 celldm(1) =     12.93295186
 celldm(2) =      1.02544740
 celldm(3) =      0.69153955
Input lattice vectors:
     1.00045193     0.00000000     0.00000000
     0.00000000     1.02591084     0.00000000
     0.00000000     0.00000000     0.69185208
New lattice vectors in INITIAL alat:
     1.00045193     0.00000000     0.00000000
     0.00000000     1.02591084     0.00000000
     0.00000000     0.00000000     0.69185208
New lattice vectors in NEW alat (for information only):
     1.00000000     0.00000000     0.00000000
     0.00000000     1.02544740     0.00000000
     0.00000000     0.00000000     0.69153955
Discrepancy in bohr =     0.000000    0.000000    0.000000
     new conv_thr            =            1.0E-10 Ry

     new unit-cell volume =   1533.99306 a.u.^3 (   227.31432 Ang^3 )
     density =      2.44006 g/cm^3

CELL_PARAMETERS (alat= 12.92710967)
   1.000451933   0.000000000   0.000000000
   0.000000000   1.025910837   0.000000000
   0.000000000   0.000000000   0.691852079

ATOMIC_POSITIONS (crystal)
Ba               0.5000000000        0.5000000000        0.5001002152
Ba               0.0000000000        0.0000000000        0.9998997848
B                0.6102883949        0.2393579573        0.0000639450
B                0.3897116051        0.7606420427        0.0000639450
B                0.1102883949        0.2606420427        0.4999360550
B                0.8897116051        0.7393579573        0.4999360550
H                0.4355234280        0.2918014568        0.0002284797
H                0.5644765720        0.7081985432        0.0002284797
H                0.9355234280        0.2081985432        0.4997715203
H                0.0644765720        0.7918014568        0.4997715203
H                0.7211181400        0.3824422469       -0.0000074014
H                0.2788818600        0.6175577531       -0.0000074014
H                0.2211181400        0.1175577531        0.5000074014
H                0.7788818600        0.8824422469        0.5000074014
H                0.6390733769        0.1429119934        0.7823374698
H                0.3609266231        0.8570880066        0.7823374698
H                0.1390733769        0.3570880066        0.7176625302
H                0.8609266231        0.6429119934        0.7176625302
H                0.3607140857        0.8571367967        0.2176853253
H                0.6392859143        0.1428632033        0.2176853253
H                0.8607140857        0.6428632033        0.2823146747
H                0.1392859143        0.3571367967        0.2823146747



     Writing config-only to output data dir ./pwscf.save/ :
     XML data file
     NEW-OLD atomic charge density approx. for the potential

     total cpu time spent up to now is      277.6 secs

     Self-consistent Calculation

     iteration #  1     ecut=   100.00 Ry     beta= 0.70
     Davidson diagonalization with overlap
     ethr =  1.00E-06,  avg # of iterations =  4.1

     total cpu time spent up to now is      302.4 secs

     total energy              =    -156.46450926 Ry
     estimated scf accuracy    <       0.00146738 Ry

     iteration #  2     ecut=   100.00 Ry     beta= 0.70
     Davidson diagonalization with overlap
     ethr =  3.06E-06,  avg # of iterations =  2.0

     total cpu time spent up to now is      319.3 secs

     total energy              =    -156.46494507 Ry
     estimated scf accuracy    <       0.00034968 Ry

     iteration #  3     ecut=   100.00 Ry     beta= 0.70
     Davidson diagonalization with overlap
     ethr =  7.29E-07,  avg # of iterations =  2.0

     total cpu time spent up to now is      336.1 secs

     total energy              =    -156.46498983 Ry
     estimated scf accuracy    <       0.00000551 Ry

     iteration #  4     ecut=   100.00 Ry     beta= 0.70
     Davidson diagonalization with overlap
     ethr =  1.15E-08,  avg # of iterations =  3.0

     total cpu time spent up to now is      355.8 secs

     total energy              =    -156.46499269 Ry
     estimated scf accuracy    <       0.00000422 Ry

     iteration #  5     ecut=   100.00 Ry     beta= 0.70
     Davidson diagonalization with overlap
     ethr =  8.80E-09,  avg # of iterations =  2.0

     total cpu time spent up to now is      372.7 secs

     total energy              =    -156.46499294 Ry
     estimated scf accuracy    <       0.00000032 Ry

     iteration #  6     ecut=   100.00 Ry     beta= 0.70
     Davidson diagonalization with overlap
     ethr =  6.58E-10,  avg # of iterations =  2.6

     total cpu time spent up to now is      389.8 secs

     total energy              =    -156.46499307 Ry
     estimated scf accuracy    <       0.00000006 Ry

     iteration #  7     ecut=   100.00 Ry     beta= 0.70
     Davidson diagonalization with overlap
     ethr =  1.22E-10,  avg # of iterations =  2.3

     total cpu time spent up to now is      406.8 secs

     total energy              =    -156.46499308 Ry
     estimated scf accuracy    <          2.3E-09 Ry

     iteration #  8     ecut=   100.00 Ry     beta= 0.70
     Davidson diagonalization with overlap
     ethr =  4.86E-12,  avg # of iterations =  5.2

     total cpu time spent up to now is      431.6 secs

     total energy              =    -156.46499308 Ry
     estimated scf accuracy    <          1.1E-10 Ry

     iteration #  9     ecut=   100.00 Ry     beta= 0.70
     Davidson diagonalization with overlap
     ethr =  2.21E-13,  avg # of iterations =  4.4

     total cpu time spent up to now is      452.4 secs

     End of self-consistent calculation

          k = 0.0000 0.0000 0.0000 ( 25883 PWs)   bands (ev):

   -24.5079 -24.5017  -9.9330  -9.8682  -9.7215  -9.6935  -9.6588  -9.6113
    -6.2134  -5.3299  -4.8011  -4.6361  -1.9281  -1.0665  -1.0559  -0.6788
    -0.3275  -0.3209  -0.3096  -0.1565  -0.0099   0.3601   0.3898   0.4265

          k = 0.0000 0.0000 0.3613 ( 25922 PWs)   bands (ev):

   -24.5023 -24.4979  -9.8596  -9.8535  -9.8319  -9.8167  -9.7085  -9.6934
    -5.7895  -5.1268  -4.9286  -4.8180  -1.5923  -1.3511  -0.8920  -0.8426
    -0.7233  -0.6238  -0.2845  -0.0220   0.1910   0.1982   0.2677   0.4119

          k = 0.0000 0.0000-0.7227 ( 25900 PWs)   bands (ev):

   -24.4953 -24.4953 -10.0258 -10.0257  -9.7483  -9.7483  -9.7194  -9.7193
    -5.1541  -5.1536  -5.0314  -5.0309  -1.3528  -1.3523  -1.3326  -1.3311
    -0.3402  -0.3397  -0.3149  -0.3130   0.2226   0.2228   0.2455   0.2460

          k = 0.0000 0.2437 0.0000 ( 25926 PWs)   bands (ev):

   -24.5070 -24.5026  -9.9098  -9.8455  -9.7587  -9.7193  -9.6517  -9.6181
    -6.0416  -5.2569  -5.0448  -4.7446  -1.6069  -1.2309  -1.1373  -0.4248
    -0.4188  -0.3922  -0.1160  -0.0168   0.0694   0.0708   0.2816   0.3629

          k = 0.0000 0.2437 0.3613 ( 25909 PWs)   bands (ev):

   -24.5016 -24.4985  -9.8897  -9.8563  -9.8024  -9.7965  -9.7138  -9.7091
    -5.6898  -5.1880  -4.9739  -4.8587  -1.4136  -1.3745  -1.1558  -0.6464
    -0.6056  -0.4189  -0.4072   0.0241   0.1175   0.1426   0.2497   0.3060

          k = 0.0000 0.2437-0.7227 ( 25912 PWs)   bands (ev):

   -24.4953 -24.4953 -10.0366 -10.0365  -9.7350  -9.7350  -9.7187  -9.7187
    -5.3567  -5.3567  -4.8224  -4.8223  -1.4479  -1.4472  -1.1885  -1.1879
    -0.2772  -0.2772  -0.2735  -0.2718   0.0755   0.0755   0.2397   0.2401

          k = 0.0000-0.4874 0.0000 ( 25878 PWs)   bands (ev):

   -24.5048 -24.5048  -9.8471  -9.8471  -9.7779  -9.7779  -9.6347  -9.6347
    -5.6028  -5.6028  -4.9880  -4.9880  -1.3405  -1.3405  -0.7080  -0.7080
    -0.4871  -0.4871  -0.0171  -0.0171   0.0991   0.0991   0.2306   0.2306

          k = 0.0000-0.4874 0.3613 ( 25910 PWs)   bands (ev):

   -24.5001 -24.5001  -9.8871  -9.8871  -9.7657  -9.7657  -9.7332  -9.7332
    -5.4388  -5.4388  -4.9392  -4.9392  -1.3542  -1.3542  -0.9525  -0.9525
    -0.3896  -0.3896  -0.1192  -0.1192   0.0326   0.0326   0.2317   0.2317

          k = 0.0000-0.4874-0.7227 ( 25860 PWs)   bands (ev):

   -24.4953 -24.4953 -10.0464 -10.0464  -9.7252  -9.7252  -9.7153  -9.7153
    -5.4598  -5.4598  -4.7132  -4.7132  -1.5277  -1.5277  -0.9822  -0.9822
    -0.3373  -0.3373  -0.1926  -0.1926  -0.1021  -0.1021   0.2747   0.2747

          k = 0.2499 0.0000 0.0000 ( 25923 PWs)   bands (ev):

   -24.5070 -24.5026  -9.9035  -9.8528  -9.7531  -9.7298  -9.6517  -9.6181
    -6.0492  -5.3805  -4.8255  -4.7658  -1.7514  -0.9698  -0.9457  -0.7985
    -0.3126  -0.2682  -0.2017  -0.1380  -0.0468  -0.0278   0.3338   0.3757

          k = 0.2499 0.0000 0.3613 ( 25884 PWs)   bands (ev):

   -24.5016 -24.4985  -9.8816  -9.8657  -9.8252  -9.7774  -9.7263  -9.6993
    -5.6571  -5.1298  -4.9506  -4.9307  -1.5599  -1.3259  -1.1714  -0.7021
    -0.6595  -0.4340  -0.2068  -0.0765   0.0357   0.1704   0.3474   0.3666

          k = 0.2499 0.0000-0.7227 ( 25882 PWs)   bands (ev):

   -24.4953 -24.4953 -10.0398 -10.0397  -9.7390  -9.7389  -9.7163  -9.7163
    -5.1781  -5.1777  -4.9831  -4.9828  -1.7802  -1.7798  -0.9473  -0.9468
    -0.3524  -0.3521  -0.0768  -0.0753   0.0532   0.0533   0.2825   0.2829

          k = 0.2499 0.2437 0.0000 ( 25915 PWs)   bands (ev):

   -24.5063 -24.5033  -9.9235  -9.8343  -9.7901  -9.6983  -9.6465  -9.6228
    -5.9186  -5.3454  -5.0241  -4.8119  -1.4904  -1.1893  -0.9608  -0.5278
    -0.4572  -0.4177  -0.1394  -0.0079   0.0175   0.0792   0.1618   0.2950

          k = 0.2499 0.2437 0.3613 ( 25883 PWs)   bands (ev):

   -24.5011 -24.4990  -9.8821  -9.8533  -9.8521  -9.7644  -9.7315  -9.6954
    -5.5729  -5.1464  -5.0474  -4.9323  -1.5205  -1.2795  -1.2119  -0.6945
    -0.5223  -0.3688  -0.2655  -0.0655   0.0280   0.1359   0.2704   0.3483

          k = 0.2499 0.2437-0.7227 ( 25908 PWs)   bands (ev):

   -24.4953 -24.4953 -10.0455 -10.0276  -9.7532  -9.7260  -9.7213  -9.7171
    -5.3563  -5.2201  -4.9364  -4.7975  -1.7563  -1.6915  -1.0027  -0.9342
    -0.3922  -0.3893  -0.0996  -0.0582   0.0877   0.1067   0.2315   0.2714

          k = 0.2499-0.4874 0.0000 ( 25900 PWs)   bands (ev):

   -24.5048 -24.5048  -9.9031  -9.9031  -9.7235  -9.7235  -9.6345  -9.6345
    -5.5855  -5.5855  -5.0008  -5.0008  -1.2430  -1.2430  -0.7207  -0.7207
    -0.5172  -0.5172  -0.0740  -0.0740   0.1283   0.1283   0.1633   0.1633

          k = 0.2499-0.4874 0.3613 ( 25924 PWs)   bands (ev):

   -24.5000 -24.5000  -9.8794  -9.8794  -9.8066  -9.8066  -9.7051  -9.7051
    -5.3606  -5.3606  -5.0039  -5.0039  -1.4290  -1.4290  -0.9103  -0.9103
    -0.3886  -0.3886  -0.0919  -0.0919   0.0348   0.0348   0.2465   0.2465

          k = 0.2499-0.4874-0.7227 ( 25932 PWs)   bands (ev):

   -24.4953 -24.4953 -10.0341 -10.0341  -9.7406  -9.7406  -9.7210  -9.7210
    -5.3727  -5.3727  -4.7766  -4.7766  -1.6573  -1.6573  -1.0350  -1.0350
    -0.2911  -0.2911  -0.1705  -0.1705   0.0849   0.0849   0.2606   0.2606

          k =-0.4998 0.0000 0.0000 ( 25934 PWs)   bands (ev):

   -24.5048 -24.5048  -9.8335  -9.8335  -9.7973  -9.7973  -9.6347  -9.6347
    -5.6686  -5.6686  -4.8594  -4.8594  -1.3589  -1.3589  -0.6156  -0.6156
    -0.2740  -0.2740  -0.2504  -0.2504  -0.1536  -0.1536   0.2392   0.2392

          k =-0.4998 0.0000 0.3613 ( 25846 PWs)   bands (ev):

   -24.5000 -24.5000  -9.8888  -9.8888  -9.7812  -9.7812  -9.7236  -9.7236
    -5.3442  -5.3442  -4.9925  -4.9925  -1.4775  -1.4775  -0.9600  -0.9600
    -0.3951  -0.3951  -0.2167  -0.2167   0.1343   0.1343   0.3319   0.3319

          k =-0.4998 0.0000-0.7227 ( 25880 PWs)   bands (ev):

   -24.4953 -24.4953 -10.0528 -10.0528  -9.7322  -9.7322  -9.7116  -9.7116
    -5.1967  -5.1967  -4.9386  -4.9386  -1.9763  -1.9763  -0.7014  -0.7014
    -0.3652  -0.3652  -0.1950  -0.1950   0.2184   0.2184   0.2566   0.2566

          k =-0.4998 0.2437 0.0000 ( 25894 PWs)   bands (ev):

   -24.5048 -24.5048  -9.9021  -9.9021  -9.7274  -9.7274  -9.6345  -9.6345
    -5.6237  -5.6237  -4.9313  -4.9313  -1.2607  -1.2607  -0.6217  -0.6217
    -0.4548  -0.4548  -0.2819  -0.2819   0.0459   0.0459   0.2163   0.2163

          k =-0.4998 0.2437 0.3613 ( 25894 PWs)   bands (ev):

   -24.5000 -24.5000  -9.8805  -9.8805  -9.8104  -9.8104  -9.7041  -9.7041
    -5.2994  -5.2994  -5.0443  -5.0443  -1.4804  -1.4804  -0.9422  -0.9422
    -0.3588  -0.3588  -0.1693  -0.1693   0.1260   0.1260   0.2690   0.2690

          k =-0.4998 0.2437-0.7227 ( 25876 PWs)   bands (ev):

   -24.4953 -24.4953 -10.0375 -10.0375  -9.7427  -9.7427  -9.7203  -9.7203
    -5.2310  -5.2310  -4.8993  -4.8993  -1.8882  -1.8882  -0.8864  -0.8864
    -0.3206  -0.3206  -0.1378  -0.1378   0.1770   0.1770   0.3020   0.3020

          k =-0.4998-0.4874 0.0000 ( 25912 PWs)   bands (ev):

   -24.5048 -24.5048  -9.9363  -9.9363  -9.6918  -9.6918  -9.6342  -9.6342
    -5.5687  -5.5687  -5.0124  -5.0124  -1.1172  -1.1172  -0.7660  -0.7660
    -0.5448  -0.5448  -0.0920  -0.0920   0.0606   0.0606   0.1549   0.1549

          k =-0.4998-0.4874 0.3613 ( 25916 PWs)   bands (ev):

   -24.5000 -24.5000  -9.8655  -9.8655  -9.8389  -9.8389  -9.6919  -9.6919
    -5.2191  -5.2191  -5.1314  -5.1314  -1.4643  -1.4643  -0.9893  -0.9893
    -0.2165  -0.2165  -0.0824  -0.0824   0.0554   0.0554   0.1674   0.1674

          k =-0.4998-0.4874-0.7227 ( 25888 PWs)   bands (ev):

   -24.4953 -24.4953 -10.0203 -10.0203  -9.7587  -9.7587  -9.7253  -9.7253
    -5.2590  -5.2590  -4.8662  -4.8662  -1.7493  -1.7493  -1.1495  -1.1495
    -0.1207  -0.1207  -0.0743  -0.0743   0.0715   0.0715   0.2728   0.2728

     highest occupied level (ev):     0.4265

!    total energy              =    -156.46499308 Ry
     estimated scf accuracy    <          9.0E-11 Ry

     The total energy is the sum of the following terms:
     one-electron contribution =     -25.94214955 Ry
     hartree contribution      =      26.46703122 Ry
     xc contribution           =     -48.85352922 Ry
     ewald contribution        =    -108.13634553 Ry

     convergence has been achieved in   9 iterations

     Forces acting on atoms (cartesian axes, Ry/au):

     atom    1 type  2   force =     0.00000000    0.00000000    0.00000768
     atom    2 type  2   force =     0.00000000    0.00000000   -0.00000768
     atom    3 type  1   force =     0.00055190    0.00227817   -0.00001068
     atom    4 type  1   force =    -0.00055190   -0.00227817   -0.00001068
     atom    5 type  1   force =     0.00055190   -0.00227817    0.00001068
     atom    6 type  1   force =    -0.00055190    0.00227817    0.00001068
     atom    7 type  3   force =     0.01220811   -0.00284496   -0.00001846
     atom    8 type  3   force =    -0.01220811    0.00284496   -0.00001846
     atom    9 type  3   force =     0.01220811    0.00284496    0.00001846
     atom   10 type  3   force =    -0.01220811   -0.00284496    0.00001846
     atom   11 type  3   force =    -0.00808367   -0.00927210    0.00000595
     atom   12 type  3   force =     0.00808367    0.00927210    0.00000595
     atom   13 type  3   force =    -0.00808367    0.00927210   -0.00000595
     atom   14 type  3   force =     0.00808367   -0.00927210   -0.00000595
     atom   15 type  3   force =    -0.00122012    0.00714518    0.01046896
     atom   16 type  3   force =     0.00122012   -0.00714518    0.01046896
     atom   17 type  3   force =    -0.00122012   -0.00714518   -0.01046896
     atom   18 type  3   force =     0.00122012    0.00714518   -0.01046896
     atom   19 type  3   force =     0.00127066   -0.00716280   -0.01047718
     atom   20 type  3   force =    -0.00127066    0.00716280   -0.01047718
     atom   21 type  3   force =     0.00127066    0.00716280    0.01047718
     atom   22 type  3   force =    -0.00127066   -0.00716280    0.01047718

     Total force =     0.050548     Total SCF correction =     0.000004


     Computing stress (Cartesian axis) and pressure

          total   stress  (Ry/bohr**3)                   (kbar)     P=      -30.99
  -0.00019657   0.00000000   0.00000000          -28.92        0.00        0.00
   0.00000000  -0.00019971   0.00000000            0.00      -29.38        0.00
   0.00000000   0.00000000  -0.00023575            0.00        0.00      -34.68

     Volume is kept fixed: isostatic pressure set to zero
     Energy error            =      5.1E-03 Ry
     Gradient error          =      1.2E-02 Ry/Bohr
     Cell gradient error     =      3.7E+00 kbar

     number of scf cycles    =   2
     number of bfgs steps    =   1

     enthalpy           old  =    -156.4599234116 Ry
     enthalpy           new  =    -156.4649930812 Ry

     CASE: enthalpy          _new < enthalpy          _old

     new trust radius        =       0.0297807193 bohr
ibrav =      8
 celldm(1) =     12.94361470
 celldm(2) =      1.02525930
 celldm(3) =      0.68995847
Input lattice vectors:
     1.00127678     0.00000000     0.00000000
     0.00000000     1.02656833     0.00000000
     0.00000000     0.00000000     0.69083939
New lattice vectors in INITIAL alat:
     1.00127678     0.00000000     0.00000000
     0.00000000     1.02656833     0.00000000
     0.00000000     0.00000000     0.69083939
New lattice vectors in NEW alat (for information only):
     1.00000000     0.00000000     0.00000000
     0.00000000     1.02525930     0.00000000
     0.00000000     0.00000000     0.68995847
Discrepancy in bohr =     0.000000    0.000000    0.000000
     new conv_thr            =            1.0E-10 Ry

     new unit-cell volume =   1533.99306 a.u.^3 (   227.31432 Ang^3 )
     density =      2.44006 g/cm^3

CELL_PARAMETERS (alat= 12.92710967)
   1.001276776   0.000000000   0.000000000
   0.000000000   1.026568326   0.000000000
   0.000000000   0.000000000   0.690839390

ATOMIC_POSITIONS (crystal)
Ba               0.5000000000        0.5000000000        0.5001022165
Ba               0.0000000000        0.0000000000        0.9998977835
B                0.6103879365        0.2397587806        0.0000611609
B                0.3896120635        0.7602412194        0.0000611609
B                0.1103879365        0.2602412194        0.4999388391
B                0.8896120635        0.7397587806        0.4999388391
H                0.4377308814        0.2912996904        0.0002236690
H                0.5622691186        0.7087003096        0.0002236690
H                0.9377308814        0.2087003096        0.4997763310
H                0.0622691186        0.7912996904        0.4997763310
H                0.7196564783        0.3808072448       -0.0000058492
H                0.2803435217        0.6191927552       -0.0000058492
H                0.2196564783        0.1191927552        0.5000058492
H                0.7803435217        0.8808072448        0.5000058492
H                0.6388524969        0.1441716385        0.7850686366
H                0.3611475031        0.8558283615        0.7850686366
H                0.1388524969        0.3558283615        0.7149313634
H                0.8611475031        0.6441716385        0.7149313634
H                0.3609440955        0.8558740478        0.2149520228
H                0.6390559045        0.1441259522        0.2149520228
H                0.8609440955        0.6441259522        0.2850479772
H                0.1390559045        0.3558740478        0.2850479772



     Writing config-only to output data dir ./pwscf.save/ :
     XML data file
     NEW-OLD atomic charge density approx. for the potential

     total cpu time spent up to now is      485.3 secs

     Self-consistent Calculation

     iteration #  1     ecut=   100.00 Ry     beta= 0.70
     Davidson diagonalization with overlap
     ethr =  1.00E-06,  avg # of iterations =  5.0

     total cpu time spent up to now is      512.5 secs

     total energy              =    -156.46717155 Ry
     estimated scf accuracy    <       0.00370951 Ry

     iteration #  2     ecut=   100.00 Ry     beta= 0.70
     Davidson diagonalization with overlap
     ethr =  7.73E-06,  avg # of iterations =  2.0

     total cpu time spent up to now is      529.3 secs

     total energy              =    -156.46833134 Ry
     estimated scf accuracy    <       0.00100811 Ry

     iteration #  3     ecut=   100.00 Ry     beta= 0.70
     Davidson diagonalization with overlap
     ethr =  2.10E-06,  avg # of iterations =  2.0

     total cpu time spent up to now is      546.2 secs

     total energy              =    -156.46846122 Ry
     estimated scf accuracy    <       0.00001562 Ry

     iteration #  4     ecut=   100.00 Ry     beta= 0.70
     Davidson diagonalization with overlap
     ethr =  3.25E-08,  avg # of iterations =  3.0

     total cpu time spent up to now is      565.8 secs

     total energy              =    -156.46846864 Ry
     estimated scf accuracy    <       0.00000878 Ry

     iteration #  5     ecut=   100.00 Ry     beta= 0.70
     Davidson diagonalization with overlap
     ethr =  1.83E-08,  avg # of iterations =  2.0

     total cpu time spent up to now is      582.6 secs

     total energy              =    -156.46846932 Ry
     estimated scf accuracy    <       0.00000050 Ry

     iteration #  6     ecut=   100.00 Ry     beta= 0.70
     Davidson diagonalization with overlap
     ethr =  1.04E-09,  avg # of iterations =  2.9

     total cpu time spent up to now is      600.4 secs

     total energy              =    -156.46846954 Ry
     estimated scf accuracy    <       0.00000018 Ry

     iteration #  7     ecut=   100.00 Ry     beta= 0.70
     Davidson diagonalization with overlap
     ethr =  3.72E-10,  avg # of iterations =  2.0

     total cpu time spent up to now is      617.3 secs

     total energy              =    -156.46846957 Ry
     estimated scf accuracy    <          4.0E-09 Ry

     iteration #  8     ecut=   100.00 Ry     beta= 0.70
     Davidson diagonalization with overlap
     ethr =  8.29E-12,  avg # of iterations =  5.7

     total cpu time spent up to now is      643.9 secs

     total energy              =    -156.46846957 Ry
     estimated scf accuracy    <          1.3E-10 Ry

     iteration #  9     ecut=   100.00 Ry     beta= 0.70
     Davidson diagonalization with overlap
     ethr =  2.68E-13,  avg # of iterations =  5.5

     total cpu time spent up to now is      668.8 secs

     total energy              =    -156.46846957 Ry
     estimated scf accuracy    <          1.2E-10 Ry

     iteration # 10     ecut=   100.00 Ry     beta= 0.70
     Davidson diagonalization with overlap
     ethr =  2.47E-13,  avg # of iterations =  1.0

     total cpu time spent up to now is      682.1 secs

     total energy              =    -156.46846957 Ry
     estimated scf accuracy    <          1.6E-10 Ry

     iteration # 11     ecut=   100.00 Ry     beta= 0.70
     Davidson diagonalization with overlap
     ethr =  2.47E-13,  avg # of iterations =  4.0

     total cpu time spent up to now is      699.4 secs

     End of self-consistent calculation

          k = 0.0000 0.0000 0.0000 ( 25883 PWs)   bands (ev):

   -24.5339 -24.5278  -9.9595  -9.8935  -9.7463  -9.7178  -9.6823  -9.6354
    -6.2676  -5.4145  -4.8823  -4.7228  -1.9303  -1.0903  -1.0835  -0.7297
    -0.3649  -0.3462  -0.3335  -0.1931  -0.0402   0.3028   0.3281   0.3609

          k = 0.0000 0.0000 0.3619 ( 25922 PWs)   bands (ev):

   -24.5282 -24.5238  -9.8849  -9.8800  -9.8589  -9.8413  -9.7329  -9.7176
    -5.8459  -5.2077  -5.0132  -4.9069  -1.5899  -1.3588  -0.9017  -0.8786
    -0.7523  -0.6528  -0.3246  -0.0701   0.1343   0.1427   0.2181   0.3518

          k = 0.0000 0.0000-0.7238 ( 25900 PWs)   bands (ev):

   -24.5212 -24.5212 -10.0548 -10.0547  -9.7719  -9.7719  -9.7437  -9.7436
    -5.2231  -5.2226  -5.1207  -5.1202  -1.3529  -1.3524  -1.3343  -1.3328
    -0.3876  -0.3872  -0.3562  -0.3543   0.1703   0.1704   0.1881   0.1886

          k = 0.0000 0.2435 0.0000 ( 25926 PWs)   bands (ev):

   -24.5330 -24.5287  -9.9362  -9.8712  -9.7833  -9.7437  -9.6753  -9.6421
    -6.0980  -5.3420  -5.1176  -4.8306  -1.6181  -1.2478  -1.1647  -0.4516
    -0.4514  -0.4450  -0.1553  -0.0517   0.0146   0.0364   0.2249   0.3023

          k = 0.0000 0.2435 0.3619 ( 25909 PWs)   bands (ev):

   -24.5275 -24.5245  -9.9156  -9.8828  -9.8284  -9.8213  -9.7383  -9.7332
    -5.7494  -5.2669  -5.0554  -4.9457  -1.4159  -1.3813  -1.1713  -0.6699
    -0.6369  -0.4644  -0.4413  -0.0244   0.0640   0.0879   0.1977   0.2493

          k = 0.0000 0.2435-0.7238 ( 25912 PWs)   bands (ev):

   -24.5212 -24.5212 -10.0654 -10.0653  -9.7586  -9.7586  -9.7431  -9.7431
    -5.4345  -5.4344  -4.9024  -4.9023  -1.4500  -1.4494  -1.1905  -1.1899
    -0.3254  -0.3253  -0.3155  -0.3137   0.0263   0.0263   0.1816   0.1819

          k = 0.0000-0.4871 0.0000 ( 25878 PWs)   bands (ev):

   -24.5308 -24.5308  -9.8736  -9.8736  -9.8019  -9.8019  -9.6586  -9.6586
    -5.6666  -5.6666  -5.0720  -5.0720  -1.3556  -1.3556  -0.7445  -0.7445
    -0.5156  -0.5156  -0.0744  -0.0744   0.0631   0.0631   0.1773   0.1773

          k = 0.0000-0.4871 0.3619 ( 25910 PWs)   bands (ev):

   -24.5260 -24.5260  -9.9132  -9.9132  -9.7917  -9.7917  -9.7570  -9.7570
    -5.5072  -5.5072  -5.0225  -5.0225  -1.3603  -1.3603  -0.9724  -0.9724
    -0.4282  -0.4282  -0.1592  -0.1592  -0.0243  -0.0243   0.1781   0.1781

          k = 0.0000-0.4871-0.7238 ( 25860 PWs)   bands (ev):

   -24.5211 -24.5211 -10.0751 -10.0751  -9.7489  -9.7489  -9.7397  -9.7397
    -5.5384  -5.5384  -4.7918  -4.7918  -1.5297  -1.5297  -0.9845  -0.9845
    -0.3862  -0.3862  -0.2336  -0.2336  -0.1518  -0.1518   0.2151   0.2151

          k = 0.2497 0.0000 0.0000 ( 25923 PWs)   bands (ev):

   -24.5330 -24.5287  -9.9299  -9.8781  -9.7780  -9.7540  -9.6753  -9.6421
    -6.1063  -5.4601  -4.9077  -4.8499  -1.7566  -0.9911  -0.9738  -0.8382
    -0.3368  -0.3059  -0.2330  -0.1837  -0.0814  -0.0769   0.2729   0.3102

          k = 0.2497 0.0000 0.3619 ( 25884 PWs)   bands (ev):

   -24.5275 -24.5245  -9.9077  -9.8920  -9.8508  -9.8029  -9.7504  -9.7237
    -5.7165  -5.2081  -5.0355  -5.0169  -1.5551  -1.3403  -1.1755  -0.7326
    -0.6986  -0.4676  -0.2526  -0.1244  -0.0112   0.1200   0.2868   0.3113

          k = 0.2497 0.0000-0.7238 ( 25882 PWs)   bands (ev):

   -24.5211 -24.5211 -10.0686 -10.0686  -9.7625  -9.7625  -9.7407  -9.7407
    -5.2595  -5.2591  -5.0608  -5.0605  -1.7739  -1.7735  -0.9575  -0.9571
    -0.3991  -0.3988  -0.1215  -0.1200   0.0034   0.0035   0.2256   0.2259

          k = 0.2497 0.2435 0.0000 ( 25915 PWs)   bands (ev):

   -24.5323 -24.5293  -9.9494  -9.8607  -9.8141  -9.7228  -9.6703  -9.6468
    -5.9785  -5.4249  -5.1004  -4.8939  -1.5048  -1.2103  -0.9904  -0.5649
    -0.4846  -0.4468  -0.1893  -0.0432  -0.0350   0.0425   0.1035   0.2383

          k = 0.2497 0.2435 0.3619 ( 25883 PWs)   bands (ev):

   -24.5271 -24.5249  -9.9084  -9.8792  -9.8775  -9.7905  -9.7554  -9.7198
    -5.6353  -5.2263  -5.1260  -5.0175  -1.5197  -1.2843  -1.2290  -0.7253
    -0.5589  -0.4050  -0.3094  -0.1105  -0.0235   0.0830   0.2161   0.2929

          k = 0.2497 0.2435-0.7238 ( 25908 PWs)   bands (ev):

   -24.5211 -24.5211 -10.0744 -10.0564  -9.7768  -9.7497  -9.7454  -9.7416
    -5.4369  -5.2996  -5.0159  -4.8755  -1.7508  -1.6855  -1.0144  -0.9438
    -0.4376  -0.4347  -0.1404  -0.1035   0.0318   0.0552   0.1803   0.2097

          k = 0.2497-0.4871 0.0000 ( 25900 PWs)   bands (ev):

   -24.5308 -24.5308  -9.9288  -9.9288  -9.7481  -9.7481  -9.6583  -9.6583
    -5.6537  -5.6537  -5.0793  -5.0793  -1.2643  -1.2643  -0.7566  -0.7566
    -0.5444  -0.5444  -0.1225  -0.1225   0.0907   0.0907   0.1076   0.1076

          k = 0.2497-0.4871 0.3619 ( 25924 PWs)   bands (ev):

   -24.5260 -24.5260  -9.9052  -9.9052  -9.8323  -9.8323  -9.7295  -9.7295
    -5.4311  -5.4311  -5.0852  -5.0852  -1.4322  -1.4322  -0.9359  -0.9359
    -0.4249  -0.4249  -0.1372  -0.1372  -0.0175  -0.0175   0.1935   0.1935

          k = 0.2497-0.4871-0.7238 ( 25932 PWs)   bands (ev):

   -24.5211 -24.5211 -10.0629 -10.0629  -9.7642  -9.7642  -9.7453  -9.7453
    -5.4526  -5.4526  -4.8553  -4.8553  -1.6524  -1.6524  -1.0462  -1.0462
    -0.3370  -0.3370  -0.2131  -0.2131   0.0325   0.0325   0.2031   0.2031

          k =-0.4994 0.0000 0.0000 ( 25934 PWs)   bands (ev):

   -24.5308 -24.5308  -9.8603  -9.8603  -9.8209  -9.8209  -9.6586  -9.6586
    -5.7346  -5.7346  -4.9432  -4.9432  -1.3713  -1.3713  -0.6477  -0.6477
    -0.3018  -0.3018  -0.2988  -0.2988  -0.1925  -0.1925   0.1769   0.1769

          k =-0.4994 0.0000 0.3619 ( 25846 PWs)   bands (ev):

   -24.5260 -24.5260  -9.9150  -9.9150  -9.8067  -9.8067  -9.7479  -9.7479
    -5.4119  -5.4119  -5.0783  -5.0783  -1.4759  -1.4759  -0.9834  -0.9834
    -0.4373  -0.4373  -0.2607  -0.2607   0.0870   0.0870   0.2729   0.2729

          k =-0.4994 0.0000-0.7238 ( 25880 PWs)   bands (ev):

   -24.5211 -24.5211 -10.0815 -10.0815  -9.7558  -9.7558  -9.7360  -9.7360
    -5.2835  -5.2835  -5.0119  -5.0119  -1.9668  -1.9668  -0.7151  -0.7151
    -0.4117  -0.4117  -0.2405  -0.2405   0.1707   0.1707   0.1961   0.1961

          k =-0.4994 0.2435 0.0000 ( 25894 PWs)   bands (ev):

   -24.5308 -24.5308  -9.9277  -9.9277  -9.7521  -9.7521  -9.6583  -9.6583
    -5.6926  -5.6926  -5.0101  -5.0101  -1.2812  -1.2812  -0.6546  -0.6546
    -0.4816  -0.4816  -0.3286  -0.3286   0.0085   0.0085   0.1566   0.1566

          k =-0.4994 0.2435 0.3619 ( 25894 PWs)   bands (ev):

   -24.5260 -24.5260  -9.9063  -9.9063  -9.8360  -9.8360  -9.7284  -9.7284
    -5.3693  -5.3693  -5.1270  -5.1270  -1.4807  -1.4807  -0.9669  -0.9669
    -0.4015  -0.4015  -0.2125  -0.2125   0.0768   0.0768   0.2137   0.2137

          k =-0.4994 0.2435-0.7238 ( 25876 PWs)   bands (ev):

   -24.5211 -24.5211 -10.0664 -10.0664  -9.7661  -9.7661  -9.7447  -9.7447
    -5.3148  -5.3148  -4.9755  -4.9755  -1.8792  -1.8792  -0.9007  -0.9007
    -0.3659  -0.3659  -0.1839  -0.1839   0.1241   0.1241   0.2462   0.2462

          k =-0.4994-0.4871 0.0000 ( 25912 PWs)   bands (ev):

   -24.5308 -24.5308  -9.9618  -9.9618  -9.7165  -9.7165  -9.6581  -9.6581
    -5.6418  -5.6418  -5.0851  -5.0851  -1.1506  -1.1506  -0.7919  -0.7919
    -0.5708  -0.5708  -0.1429  -0.1429   0.0102   0.0102   0.1161   0.1161

          k =-0.4994-0.4871 0.3619 ( 25916 PWs)   bands (ev):

   -24.5260 -24.5260  -9.8902  -9.8902  -9.8657  -9.8657  -9.7162  -9.7162
    -5.2934  -5.2934  -5.2089  -5.2089  -1.4660  -1.4660  -1.0152  -1.0152
    -0.2561  -0.2561  -0.1351  -0.1351   0.0042   0.0042   0.1223   0.1223

          k =-0.4994-0.4871-0.7238 ( 25888 PWs)   bands (ev):

   -24.5211 -24.5211 -10.0494 -10.0494  -9.7822  -9.7822  -9.7495  -9.7495
    -5.3409  -5.3409  -4.9442  -4.9442  -1.7406  -1.7406  -1.1624  -1.1624
    -0.1667  -0.1667  -0.1275  -0.1275   0.0196   0.0196   0.2217   0.2217

     highest occupied level (ev):     0.3609

!    total energy              =    -156.46846957 Ry
     estimated scf accuracy    <          9.9E-11 Ry

     The total energy is the sum of the following terms:
     one-electron contribution =     -26.84604544 Ry
     hartree contribution      =      26.92001893 Ry
     xc contribution           =     -48.96357849 Ry
     ewald contribution        =    -107.57886458 Ry

     convergence has been achieved in  11 iterations

     Forces acting on atoms (cartesian axes, Ry/au):

     atom    1 type  2   force =     0.00000000    0.00000000    0.00000477
     atom    2 type  2   force =     0.00000000    0.00000000   -0.00000477
     atom    3 type  1   force =     0.00053266    0.00157441   -0.00000827
     atom    4 type  1   force =    -0.00053266   -0.00157441   -0.00000827
     atom    5 type  1   force =     0.00053266   -0.00157441    0.00000827
     atom    6 type  1   force =    -0.00053266    0.00157441    0.00000827
     atom    7 type  3   force =     0.00219548    0.00015101   -0.00001316
     atom    8 type  3   force =    -0.00219548   -0.00015101   -0.00001316
     atom    9 type  3   force =     0.00219548   -0.00015101    0.00001316
     atom   10 type  3   force =    -0.00219548    0.00015101    0.00001316
     atom   11 type  3   force =    -0.00114872   -0.00002670    0.00000175
     atom   12 type  3   force =     0.00114872    0.00002670    0.00000175
     atom   13 type  3   force =    -0.00114872    0.00002670   -0.00000175
     atom   14 type  3   force =     0.00114872   -0.00002670   -0.00000175
     atom   15 type  3   force =     0.00044073    0.00147335    0.00110150
     atom   16 type  3   force =    -0.00044073   -0.00147335    0.00110150
     atom   17 type  3   force =     0.00044073   -0.00147335   -0.00110150
     atom   18 type  3   force =    -0.00044073    0.00147335   -0.00110150
     atom   19 type  3   force =    -0.00040757   -0.00148374   -0.00111088
     atom   20 type  3   force =     0.00040757    0.00148374   -0.00111088
     atom   21 type  3   force =    -0.00040757    0.00148374    0.00111088
     atom   22 type  3   force =     0.00040757   -0.00148374    0.00111088

     Total force =     0.008026     Total SCF correction =     0.000003


     Computing stress (Cartesian axis) and pressure

          total   stress  (Ry/bohr**3)                   (kbar)     P=      -18.32
  -0.00011532   0.00000000   0.00000000          -16.96        0.00        0.00
   0.00000000  -0.00011661   0.00000000            0.00      -17.15        0.00
   0.00000000   0.00000000  -0.00014167            0.00        0.00      -20.84

     Volume is kept fixed: isostatic pressure set to zero
     Energy error            =      3.5E-03 Ry
     Gradient error          =      2.2E-03 Ry/Bohr
     Cell gradient error     =      2.5E+00 kbar

     number of scf cycles    =   3
     number of bfgs steps    =   2

     enthalpy           old  =    -156.4649930812 Ry
     enthalpy           new  =    -156.4684695741 Ry

     CASE: enthalpy          _new < enthalpy          _old

     new trust radius        =       0.0053874287 bohr
ibrav =      8
 celldm(1) =     12.94812166
 celldm(2) =      1.02520270
 celldm(3) =      0.68927629
Input lattice vectors:
     1.00162542     0.00000000     0.00000000
     0.00000000     1.02686909     0.00000000
     0.00000000     0.00000000     0.69039665
New lattice vectors in INITIAL alat:
     1.00162542     0.00000000     0.00000000
     0.00000000     1.02686909     0.00000000
     0.00000000     0.00000000     0.69039665
New lattice vectors in NEW alat (for information only):
     1.00000000     0.00000000     0.00000000
     0.00000000     1.02520270     0.00000000
     0.00000000     0.00000000     0.68927629
Discrepancy in bohr =     0.000000    0.000000    0.000000
     new conv_thr            =            1.0E-10 Ry

     new unit-cell volume =   1533.99306 a.u.^3 (   227.31432 Ang^3 )
     density =      2.44006 g/cm^3

CELL_PARAMETERS (alat= 12.92710967)
   1.001625421   0.000000000   0.000000000
   0.000000000   1.026869088   0.000000000
   0.000000000   0.000000000   0.690396652

ATOMIC_POSITIONS (crystal)
Ba               0.5000000000        0.5000000000        0.5001030282
Ba               0.0000000000        0.0000000000        0.9998969718
B                0.6104453257        0.2399352881        0.0000598180
B                0.3895546743        0.7600647119        0.0000598180
B                0.1104453257        0.2600647119        0.4999401820
B                0.8895546743        0.7399352881        0.4999401820
H                0.4381454241        0.2912632790        0.0002214994
H                0.5618545759        0.7087367210        0.0002214994
H                0.9381454241        0.2087367210        0.4997785006
H                0.0618545759        0.7912632790        0.4997785006
H                0.7194094078        0.3806435012       -0.0000054706
H                0.2805905922        0.6193564988       -0.0000054706
H                0.2194094078        0.1193564988        0.5000054706
H                0.7805905922        0.8806435012        0.5000054706
H                0.6388700761        0.1444246927        0.7854805094
H                0.3611299239        0.8555753073        0.7854805094
H                0.1388700761        0.3555753073        0.7145194906
H                0.8611299239        0.6444246927        0.7145194906
H                0.3609303845        0.8556197823        0.2145387351
H                0.6390696155        0.1443802177        0.2145387351
H                0.8609303845        0.6443802177        0.2854612649
H                0.1390696155        0.3556197823        0.2854612649



     Writing config-only to output data dir ./pwscf.save/ :
     XML data file
     NEW-OLD atomic charge density approx. for the potential

     total cpu time spent up to now is      732.3 secs

     Self-consistent Calculation

     iteration #  1     ecut=   100.00 Ry     beta= 0.70
     Davidson diagonalization with overlap
     ethr =  1.00E-06,  avg # of iterations =  3.0

     total cpu time spent up to now is      752.6 secs

     total energy              =    -156.46855421 Ry
     estimated scf accuracy    <       0.00007798 Ry

     iteration #  2     ecut=   100.00 Ry     beta= 0.70
     Davidson diagonalization with overlap
     ethr =  1.62E-07,  avg # of iterations =  2.0

     total cpu time spent up to now is      769.4 secs

     total energy              =    -156.46857410 Ry
     estimated scf accuracy    <       0.00001018 Ry

     iteration #  3     ecut=   100.00 Ry     beta= 0.70
     Davidson diagonalization with overlap
     ethr =  2.12E-08,  avg # of iterations =  2.0

     total cpu time spent up to now is      786.3 secs

     total energy              =    -156.46857561 Ry
     estimated scf accuracy    <       0.00000013 Ry

     iteration #  4     ecut=   100.00 Ry     beta= 0.70
     Davidson diagonalization with overlap
     ethr =  2.65E-10,  avg # of iterations =  3.8

     total cpu time spent up to now is      807.4 secs

     total energy              =    -156.46857567 Ry
     estimated scf accuracy    <       0.00000008 Ry

     iteration #  5     ecut=   100.00 Ry     beta= 0.70
     Davidson diagonalization with overlap
     ethr =  1.64E-10,  avg # of iterations =  2.1

     total cpu time spent up to now is      824.3 secs

     total energy              =    -156.46857569 Ry
     estimated scf accuracy    <          7.2E-10 Ry

     iteration #  6     ecut=   100.00 Ry     beta= 0.70
     Davidson diagonalization with overlap
     ethr =  1.50E-12,  avg # of iterations =  7.8

     total cpu time spent up to now is      859.0 secs

     total energy              =    -156.46857569 Ry
     estimated scf accuracy    <          2.5E-10 Ry

     iteration #  7     ecut=   100.00 Ry     beta= 0.70
     Davidson diagonalization with overlap
     ethr =  5.25E-13,  avg # of iterations =  2.1

     total cpu time spent up to now is      876.0 secs

     End of self-consistent calculation

          k = 0.0000 0.0000 0.0000 ( 25883 PWs)   bands (ev):

   -24.5372 -24.5311  -9.9634  -9.8971  -9.7498  -9.7211  -9.6853  -9.6385
    -6.2767  -5.4285  -4.8958  -4.7373  -1.9330  -1.0969  -1.0874  -0.7402
    -0.3688  -0.3536  -0.3338  -0.1971  -0.0419   0.2922   0.3168   0.3471

          k = 0.0000 0.0000 0.3621 ( 25922 PWs)   bands (ev):

   -24.5314 -24.5271  -9.8884  -9.8843  -9.8633  -9.8446  -9.7361  -9.7208
    -5.8545  -5.2202  -5.0277  -4.9222  -1.5907  -1.3611  -0.9046  -0.8853
    -0.7563  -0.6557  -0.3310  -0.0776   0.1241   0.1315   0.2101   0.3397

          k = 0.0000 0.0000-0.7242 ( 25900 PWs)   bands (ev):

   -24.5244 -24.5244 -10.0601 -10.0600  -9.7748  -9.7747  -9.7468  -9.7468
    -5.2330  -5.2325  -5.1364  -5.1359  -1.3521  -1.3516  -1.3358  -1.3344
    -0.3958  -0.3954  -0.3633  -0.3615   0.1595   0.1595   0.1783   0.1786

          k = 0.0000 0.2435 0.0000 ( 25926 PWs)   bands (ev):

   -24.5363 -24.5320  -9.9400  -9.8748  -9.7866  -9.7470  -9.6783  -9.6452
    -6.1076  -5.3565  -5.1292  -4.8449  -1.6225  -1.2520  -1.1702  -0.4558
    -0.4540  -0.4528  -0.1648  -0.0550   0.0028   0.0336   0.2144   0.2910

          k = 0.0000 0.2435 0.3621 ( 25909 PWs)   bands (ev):

   -24.5308 -24.5277  -9.9195  -9.8870  -9.8323  -9.8247  -9.7417  -9.7364
    -5.7586  -5.2794  -5.0690  -4.9605  -1.4174  -1.3834  -1.1750  -0.6726
    -0.6416  -0.4727  -0.4464  -0.0323   0.0542   0.0766   0.1893   0.2387

          k = 0.0000 0.2435-0.7242 ( 25912 PWs)   bands (ev):

   -24.5244 -24.5244 -10.0706 -10.0705  -9.7615  -9.7615  -9.7463  -9.7463
    -5.4470  -5.4469  -4.9153  -4.9152  -1.4514  -1.4508  -1.1902  -1.1895
    -0.3344  -0.3343  -0.3227  -0.3210   0.0180   0.0181   0.1699   0.1701

          k = 0.0000-0.4869 0.0000 ( 25878 PWs)   bands (ev):

   -24.5341 -24.5341  -9.8776  -9.8776  -9.8050  -9.8050  -9.6616  -9.6616
    -5.6776  -5.6776  -5.0856  -5.0856  -1.3598  -1.3598  -0.7528  -0.7528
    -0.5173  -0.5173  -0.0860  -0.0860   0.0597   0.0597   0.1671   0.1671

          k = 0.0000-0.4869 0.3621 ( 25910 PWs)   bands (ev):

   -24.5292 -24.5292  -9.9171  -9.9171  -9.7954  -9.7954  -9.7602  -9.7602
    -5.5180  -5.5180  -5.0364  -5.0364  -1.3623  -1.3623  -0.9762  -0.9762
    -0.4343  -0.4343  -0.1650  -0.1650  -0.0360  -0.0360   0.1689   0.1689

          k = 0.0000-0.4869-0.7242 ( 25860 PWs)   bands (ev):

   -24.5244 -24.5244 -10.0802 -10.0802  -9.7519  -9.7519  -9.7429  -9.7429
    -5.5511  -5.5511  -4.8043  -4.8043  -1.5311  -1.5311  -0.9839  -0.9839
    -0.3955  -0.3955  -0.2408  -0.2408  -0.1605  -0.1605   0.2036   0.2036

          k = 0.2496 0.0000 0.0000 ( 25923 PWs)   bands (ev):

   -24.5363 -24.5319  -9.9338  -9.8817  -9.7814  -9.7573  -9.6783  -9.6452
    -6.1160  -5.4736  -4.9213  -4.8638  -1.7598  -0.9954  -0.9810  -0.8459
    -0.3374  -0.3097  -0.2357  -0.1941  -0.0857  -0.0841   0.2614   0.2964

          k = 0.2496 0.0000 0.3621 ( 25884 PWs)   bands (ev):

   -24.5308 -24.5277  -9.9116  -9.8960  -9.8546  -9.8065  -9.7536  -9.7270
    -5.7259  -5.2205  -5.0498  -5.0315  -1.5549  -1.3437  -1.1764  -0.7379
    -0.7056  -0.4723  -0.2605  -0.1333  -0.0181   0.1113   0.2746   0.3016

          k = 0.2496 0.0000-0.7242 ( 25882 PWs)   bands (ev):

   -24.5244 -24.5243 -10.0739 -10.0738  -9.7654  -9.7654  -9.7439  -9.7439
    -5.2730  -5.2726  -5.0730  -5.0727  -1.7730  -1.7726  -0.9593  -0.9589
    -0.4072  -0.4069  -0.1295  -0.1280  -0.0065  -0.0064   0.2153   0.2156

          k = 0.2496 0.2435 0.0000 ( 25915 PWs)   bands (ev):

   -24.5356 -24.5326  -9.9531  -9.8646  -9.8172  -9.7262  -9.6733  -9.6499
    -5.9888  -5.4388  -5.1125  -4.9074  -1.5098  -1.2152  -0.9966  -0.5729
    -0.4861  -0.4486  -0.1995  -0.0465  -0.0461   0.0391   0.0925   0.2269

          k = 0.2496 0.2435 0.3621 ( 25883 PWs)   bands (ev):

   -24.5303 -24.5281  -9.9124  -9.8833  -9.8809  -9.7943  -9.7586  -9.7230
    -5.6452  -5.2390  -5.1392  -5.0319  -1.5200  -1.2856  -1.2330  -0.7305
    -0.5657  -0.4101  -0.3166  -0.1179  -0.0336   0.0737   0.2066   0.2827

          k = 0.2496 0.2435-0.7242 ( 25908 PWs)   bands (ev):

   -24.5243 -24.5243 -10.0796 -10.0617  -9.7796  -9.7527  -9.7484  -9.7448
    -5.4502  -5.3126  -5.0285  -4.8878  -1.7503  -1.6847  -1.0164  -0.9451
    -0.4463  -0.4429  -0.1469  -0.1111   0.0199   0.0459   0.1723   0.1972

          k = 0.2496-0.4869 0.0000 ( 25900 PWs)   bands (ev):

   -24.5341 -24.5341  -9.9325  -9.9325  -9.7515  -9.7515  -9.6614  -9.6614
    -5.6657  -5.6657  -5.0918  -5.0918  -1.2696  -1.2696  -0.7646  -0.7646
    -0.5458  -0.5458  -0.1327  -0.1327   0.0871   0.0871   0.0969   0.0969

          k = 0.2496-0.4869 0.3621 ( 25924 PWs)   bands (ev):

   -24.5292 -24.5292  -9.9090  -9.9090  -9.8361  -9.8361  -9.7327  -9.7327
    -5.4424  -5.4424  -5.0986  -5.0986  -1.4332  -1.4332  -0.9410  -0.9410
    -0.4306  -0.4306  -0.1447  -0.1447  -0.0278  -0.0278   0.1844   0.1844

          k = 0.2496-0.4869-0.7242 ( 25932 PWs)   bands (ev):

   -24.5243 -24.5243 -10.0682 -10.0682  -9.7671  -9.7671  -9.7485  -9.7485
    -5.4657  -5.4657  -4.8677  -4.8677  -1.6521  -1.6521  -1.0478  -1.0478
    -0.3457  -0.3457  -0.2206  -0.2206   0.0225   0.0225   0.1927   0.1927

          k =-0.4992 0.0000 0.0000 ( 25934 PWs)   bands (ev):

   -24.5341 -24.5341  -9.8643  -9.8643  -9.8240  -9.8240  -9.6616  -9.6616
    -5.7461  -5.7461  -4.9569  -4.9569  -1.3759  -1.3759  -0.6536  -0.6536
    -0.3117  -0.3117  -0.2996  -0.2996  -0.1965  -0.1965   0.1638   0.1638

          k =-0.4992 0.0000 0.3621 ( 25846 PWs)   bands (ev):

   -24.5292 -24.5292  -9.9189  -9.9189  -9.8102  -9.8102  -9.7512  -9.7512
    -5.4229  -5.4229  -5.0925  -5.0925  -1.4756  -1.4756  -0.9885  -0.9885
    -0.4442  -0.4442  -0.2686  -0.2686   0.0797   0.0797   0.2616   0.2616

          k =-0.4992 0.0000-0.7242 ( 25880 PWs)   bands (ev):

   -24.5243 -24.5243 -10.0866 -10.0866  -9.7587  -9.7587  -9.7393  -9.7393
    -5.2984  -5.2984  -5.0228  -5.0228  -1.9652  -1.9652  -0.7175  -0.7175
    -0.4198  -0.4198  -0.2491  -0.2491   0.1626   0.1626   0.1843   0.1843

          k =-0.4992 0.2435 0.0000 ( 25894 PWs)   bands (ev):

   -24.5341 -24.5341  -9.9314  -9.9314  -9.7554  -9.7554  -9.6614  -9.6614
    -5.7047  -5.7047  -5.0228  -5.0228  -1.2868  -1.2868  -0.6613  -0.6613
    -0.4830  -0.4830  -0.3376  -0.3376   0.0049   0.0049   0.1443   0.1443

          k =-0.4992 0.2435 0.3621 ( 25894 PWs)   bands (ev):

   -24.5292 -24.5292  -9.9102  -9.9102  -9.8398  -9.8398  -9.7317  -9.7317
    -5.3807  -5.3807  -5.1407  -5.1407  -1.4809  -1.4809  -0.9720  -0.9720
    -0.4090  -0.4090  -0.2199  -0.2199   0.0689   0.0689   0.2033   0.2033

          k =-0.4992 0.2435-0.7242 ( 25876 PWs)   bands (ev):

   -24.5243 -24.5243 -10.0716 -10.0716  -9.7690  -9.7690  -9.7478  -9.7478
    -5.3290  -5.3290  -4.9871  -4.9871  -1.8778  -1.8778  -0.9030  -0.9030
    -0.3746  -0.3746  -0.1920  -0.1920   0.1134   0.1134   0.2367   0.2367

          k =-0.4992-0.4869 0.0000 ( 25912 PWs)   bands (ev):

   -24.5341 -24.5341  -9.9654  -9.9654  -9.7199  -9.7199  -9.6611  -9.6611
    -5.6548  -5.6548  -5.0965  -5.0965  -1.1582  -1.1582  -0.7977  -0.7977
    -0.5720  -0.5720  -0.1536  -0.1536   0.0003   0.0003   0.1122   0.1122

          k =-0.4992-0.4869 0.3621 ( 25916 PWs)   bands (ev):

   -24.5292 -24.5292  -9.8934  -9.8934  -9.8700  -9.8700  -9.7194  -9.7194
    -5.3058  -5.3058  -5.2214  -5.2214  -1.4665  -1.4665  -1.0201  -1.0201
    -0.2629  -0.2629  -0.1447  -0.1447  -0.0055  -0.0055   0.1153   0.1153

          k =-0.4992-0.4869-0.7242 ( 25888 PWs)   bands (ev):

   -24.5243 -24.5243 -10.0547 -10.0547  -9.7850  -9.7850  -9.7526  -9.7526
    -5.3546  -5.3546  -4.9564  -4.9564  -1.7394  -1.7394  -1.1643  -1.1643
    -0.1744  -0.1744  -0.1379  -0.1379   0.0088   0.0088   0.2135   0.2135

     highest occupied level (ev):     0.3471

!    total energy              =    -156.46857569 Ry
     estimated scf accuracy    <          1.0E-11 Ry

     The total energy is the sum of the following terms:
     one-electron contribution =     -27.01452174 Ry
     hartree contribution      =      27.00444858 Ry
     xc contribution           =     -48.98179806 Ry
     ewald contribution        =    -107.47670448 Ry

     convergence has been achieved in   7 iterations

     Forces acting on atoms (cartesian axes, Ry/au):

     atom    1 type  2   force =     0.00000000    0.00000000    0.00000357
     atom    2 type  2   force =     0.00000000    0.00000000   -0.00000357
     atom    3 type  1   force =     0.00054150    0.00119003   -0.00000787
     atom    4 type  1   force =    -0.00054150   -0.00119003   -0.00000787
     atom    5 type  1   force =     0.00054150   -0.00119003    0.00000787
     atom    6 type  1   force =    -0.00054150    0.00119003    0.00000787
     atom    7 type  3   force =     0.00052923    0.00063855   -0.00001284
     atom    8 type  3   force =    -0.00052923   -0.00063855   -0.00001284
     atom    9 type  3   force =     0.00052923   -0.00063855    0.00001284
     atom   10 type  3   force =    -0.00052923    0.00063855    0.00001284
     atom   11 type  3   force =     0.00003467    0.00152036    0.00000089
     atom   12 type  3   force =    -0.00003467   -0.00152036    0.00000089
     atom   13 type  3   force =     0.00003467   -0.00152036   -0.00000089
     atom   14 type  3   force =    -0.00003467    0.00152036   -0.00000089
     atom   15 type  3   force =     0.00069983    0.00063704   -0.00047561
     atom   16 type  3   force =    -0.00069983   -0.00063704   -0.00047561
     atom   17 type  3   force =     0.00069983   -0.00063704    0.00047561
     atom   18 type  3   force =    -0.00069983    0.00063704    0.00047561
     atom   19 type  3   force =    -0.00067070   -0.00064497    0.00046724
     atom   20 type  3   force =     0.00067070    0.00064497    0.00046724
     atom   21 type  3   force =    -0.00067070    0.00064497   -0.00046724
     atom   22 type  3   force =     0.00067070   -0.00064497   -0.00046724

     Total force =     0.005260     Total SCF correction =     0.000001


     Computing stress (Cartesian axis) and pressure

          total   stress  (Ry/bohr**3)                   (kbar)     P=      -16.19
  -0.00010190   0.00000000   0.00000000          -14.99        0.00        0.00
   0.00000000  -0.00010348   0.00000000            0.00      -15.22        0.00
   0.00000000   0.00000000  -0.00012472            0.00        0.00      -18.35

     Volume is kept fixed: isostatic pressure set to zero
     Energy error            =      1.1E-04 Ry
     Gradient error          =      1.5E-03 Ry/Bohr
     Cell gradient error     =      2.2E+00 kbar

     number of scf cycles    =   4
     number of bfgs steps    =   3

     enthalpy           old  =    -156.4684695741 Ry
     enthalpy           new  =    -156.4685756919 Ry

     CASE: enthalpy          _new < enthalpy          _old

     new trust radius        =       0.0050725264 bohr
ibrav =      8
 celldm(1) =     12.95273328
 celldm(2) =      1.02513546
 celldm(3) =      0.68858550
Input lattice vectors:
     1.00198216     0.00000000     0.00000000
     0.00000000     1.02716744     0.00000000
     0.00000000     0.00000000     0.68995039
New lattice vectors in INITIAL alat:
     1.00198216     0.00000000     0.00000000
     0.00000000     1.02716744     0.00000000
     0.00000000     0.00000000     0.68995039
New lattice vectors in NEW alat (for information only):
     1.00000000     0.00000000     0.00000000
     0.00000000     1.02513546     0.00000000
     0.00000000     0.00000000     0.68858550
Discrepancy in bohr =     0.000000    0.000000    0.000000
     new conv_thr            =            1.1E-11 Ry

     new unit-cell volume =   1533.99306 a.u.^3 (   227.31432 Ang^3 )
     density =      2.44006 g/cm^3

CELL_PARAMETERS (alat= 12.92710967)
   1.001982161   0.000000000   0.000000000
   0.000000000   1.027167438   0.000000000
   0.000000000   0.000000000   0.689950386

ATOMIC_POSITIONS (crystal)
Ba               0.5000000000        0.5000000000        0.5001037612
Ba               0.0000000000        0.0000000000        0.9998962388
B                0.6105141526        0.2400983428        0.0000583305
B                0.3894858474        0.7599016572        0.0000583305
B                0.1105141526        0.2599016572        0.4999416695
B                0.8894858474        0.7400983428        0.4999416695
H                0.4383230153        0.2913109677        0.0002190832
H                0.5616769847        0.7086890323        0.0002190832
H                0.9383230153        0.2086890323        0.4997809168
H                0.0616769847        0.7913109677        0.4997809168
H                0.7193369056        0.3807335780       -0.0000052333
H                0.2806630944        0.6192664220       -0.0000052333
H                0.2193369056        0.1192664220        0.5000052333
H                0.7806630944        0.8807335780        0.5000052333
H                0.6389416584        0.1445616421        0.7855425984
H                0.3610583416        0.8554383579        0.7855425984
H                0.1389416584        0.3554383579        0.7144574016
H                0.8610583416        0.6445616421        0.7144574016
H                0.3608627456        0.8554817329        0.2144750794
H                0.6391372544        0.1445182671        0.2144750794
H                0.8608627456        0.6445182671        0.2855249206
H                0.1391372544        0.3554817329        0.2855249206



     Writing config-only to output data dir ./pwscf.save/ :
     XML data file
     NEW-OLD atomic charge density approx. for the potential

     total cpu time spent up to now is      908.8 secs

     Self-consistent Calculation

     iteration #  1     ecut=   100.00 Ry     beta= 0.70
     Davidson diagonalization with overlap
     ethr =  1.00E-06,  avg # of iterations =  2.0

     Threshold (ethr) on eigenvalues was too large:
     Diagonalizing with lowered threshold

     Davidson diagonalization with overlap
     ethr =  1.53E-08,  avg # of iterations =  3.0

     total cpu time spent up to now is      943.6 secs

     total energy              =    -156.46862751 Ry
     estimated scf accuracy    <       0.00001007 Ry

     iteration #  2     ecut=   100.00 Ry     beta= 0.70
     Davidson diagonalization with overlap
     ethr =  2.10E-08,  avg # of iterations =  2.0

     total cpu time spent up to now is      960.5 secs

     total energy              =    -156.46862979 Ry
     estimated scf accuracy    <       0.00000109 Ry

     iteration #  3     ecut=   100.00 Ry     beta= 0.70
     Davidson diagonalization with overlap
     ethr =  2.27E-09,  avg # of iterations =  2.0

     total cpu time spent up to now is      977.3 secs

     total energy              =    -156.46862995 Ry
     estimated scf accuracy    <       0.00000003 Ry

     iteration #  4     ecut=   100.00 Ry     beta= 0.70
     Davidson diagonalization with overlap
     ethr =  5.87E-11,  avg # of iterations =  4.6

     total cpu time spent up to now is      997.6 secs

     total energy              =    -156.46862996 Ry
     estimated scf accuracy    <          5.2E-09 Ry

     iteration #  5     ecut=   100.00 Ry     beta= 0.70
     Davidson diagonalization with overlap
     ethr =  1.08E-11,  avg # of iterations =  4.5

     total cpu time spent up to now is     1017.9 secs

     total energy              =    -156.46862996 Ry
     estimated scf accuracy    <          1.0E-10 Ry

     iteration #  6     ecut=   100.00 Ry     beta= 0.70
     Davidson diagonalization with overlap
     ethr =  2.16E-13,  avg # of iterations =  6.1

     total cpu time spent up to now is     1046.4 secs

     End of self-consistent calculation

          k = 0.0000 0.0000 0.0000 ( 25883 PWs)   bands (ev):

   -24.5369 -24.5308  -9.9638  -9.8974  -9.7500  -9.7211  -9.6850  -9.6383
    -6.2794  -5.4324  -4.8994  -4.7416  -1.9362  -1.0993  -1.0894  -0.7454
    -0.3681  -0.3587  -0.3306  -0.1968  -0.0393   0.2880   0.3132   0.3402

          k = 0.0000 0.0000 0.3623 ( 25922 PWs)   bands (ev):

   -24.5311 -24.5267  -9.8885  -9.8852  -9.8644  -9.8446  -9.7361  -9.7207
    -5.8560  -5.2226  -5.0321  -4.9271  -1.5920  -1.3629  -0.9069  -0.8875
    -0.7569  -0.6550  -0.3328  -0.0795   0.1211   0.1260   0.2079   0.3340

          k = 0.0000 0.0000-0.7247 ( 25900 PWs)   bands (ev):

   -24.5240 -24.5240 -10.0622 -10.0620  -9.7744  -9.7743  -9.7467  -9.7467
    -5.2338  -5.2333  -5.1418  -5.1413  -1.3514  -1.3509  -1.3376  -1.3362
    -0.3982  -0.3978  -0.3654  -0.3636   0.1536   0.1536   0.1752   0.1754

          k = 0.0000 0.2434 0.0000 ( 25926 PWs)   bands (ev):

   -24.5360 -24.5316  -9.9405  -9.8752  -9.7868  -9.7470  -9.6780  -9.6450
    -6.1104  -5.3611  -5.1319  -4.8489  -1.6264  -1.2544  -1.1724  -0.4609
    -0.4525  -0.4503  -0.1702  -0.0540  -0.0032   0.0353   0.2104   0.2871

          k = 0.0000 0.2434 0.3623 ( 25909 PWs)   bands (ev):

   -24.5304 -24.5274  -9.9201  -9.8878  -9.8329  -9.8248  -9.7418  -9.7362
    -5.7604  -5.2821  -5.0729  -4.9650  -1.4190  -1.3850  -1.1770  -0.6725
    -0.6426  -0.4759  -0.4472  -0.0347   0.0507   0.0710   0.1869   0.2345

          k = 0.0000 0.2434-0.7247 ( 25912 PWs)   bands (ev):

   -24.5240 -24.5240 -10.0725 -10.0725  -9.7612  -9.7612  -9.7462  -9.7462
    -5.4499  -5.4499  -4.9184  -4.9183  -1.4530  -1.4524  -1.1897  -1.1890
    -0.3376  -0.3375  -0.3250  -0.3232   0.0154   0.0155   0.1643   0.1645

          k = 0.0000-0.4868 0.0000 ( 25878 PWs)   bands (ev):

   -24.5338 -24.5338  -9.8781  -9.8781  -9.8050  -9.8050  -9.6613  -9.6613
[...]
        22        H      tau(  22) = (   0.1653327   0.3487467   0.1891372  )

     number of k points=    27
                       cart. coord. in units 2pi/alat
        k(    1) = (   0.0000000   0.0000000   0.0000000), wk =   0.0312500
        k(    2) = (   0.0000000   0.0000000   0.3698969), wk =   0.0625000
        k(    3) = (   0.0000000   0.0000000  -0.7397938), wk =   0.0312500
        k(    4) = (   0.0000000   0.2436913   0.0000000), wk =   0.0625000
        k(    5) = (   0.0000000   0.2436913   0.3698969), wk =   0.1250000
        k(    6) = (   0.0000000   0.2436913  -0.7397938), wk =   0.0625000
        k(    7) = (   0.0000000  -0.4873827   0.0000000), wk =   0.0312500
        k(    8) = (   0.0000000  -0.4873827   0.3698969), wk =   0.0625000
        k(    9) = (   0.0000000  -0.4873827  -0.7397938), wk =   0.0312500
        k(   10) = (   0.2441069   0.0000000   0.0000000), wk =   0.0625000
        k(   11) = (   0.2441069   0.0000000   0.3698969), wk =   0.1250000
        k(   12) = (   0.2441069   0.0000000  -0.7397938), wk =   0.0625000
        k(   13) = (   0.2441069   0.2436913   0.0000000), wk =   0.1250000
        k(   14) = (   0.2441069   0.2436913   0.3698969), wk =   0.2500000
        k(   15) = (   0.2441069   0.2436913  -0.7397938), wk =   0.1250000
        k(   16) = (   0.2441069  -0.4873827   0.0000000), wk =   0.0625000
        k(   17) = (   0.2441069  -0.4873827   0.3698969), wk =   0.1250000
        k(   18) = (   0.2441069  -0.4873827  -0.7397938), wk =   0.0625000
        k(   19) = (  -0.4882139   0.0000000   0.0000000), wk =   0.0312500
        k(   20) = (  -0.4882139   0.0000000   0.3698969), wk =   0.0625000
        k(   21) = (  -0.4882139   0.0000000  -0.7397938), wk =   0.0312500
        k(   22) = (  -0.4882139   0.2436913   0.0000000), wk =   0.0625000
        k(   23) = (  -0.4882139   0.2436913   0.3698969), wk =   0.1250000
        k(   24) = (  -0.4882139   0.2436913  -0.7397938), wk =   0.0625000
        k(   25) = (  -0.4882139  -0.4873827   0.0000000), wk =   0.0312500
        k(   26) = (  -0.4882139  -0.4873827   0.3698969), wk =   0.0625000
        k(   27) = (  -0.4882139  -0.4873827  -0.7397938), wk =   0.0312500

     Dense  grid:   586151 G-vectors     FFT dimensions: ( 120, 120,  80)

     Smooth grid:   207331 G-vectors     FFT dimensions: (  90,  90,  60)

     Estimated max dynamical RAM per process >      95.42 MB

     Estimated total dynamical RAM >       2.24 GB

     Initial potential from superposition of free atoms

     starting charge      47.9682, renormalised to      48.0000
     Starting wfcs are   42 randomized atomic wfcs

     total cpu time spent up to now is    10800.9 secs

     Self-consistent Calculation

     iteration #  1     ecut=   100.00 Ry     beta= 0.70
     Davidson diagonalization with overlap
     ethr =  1.00E-06,  avg # of iterations = 11.1

     total cpu time spent up to now is    10853.4 secs

     total energy              =    -155.82617584 Ry
     estimated scf accuracy    <       2.29094709 Ry

     iteration #  2     ecut=   100.00 Ry     beta= 0.70
     Davidson diagonalization with overlap
     ethr =  4.77E-03,  avg # of iterations =  2.0

     total cpu time spent up to now is    10870.1 secs

     total energy              =    -156.39371184 Ry
     estimated scf accuracy    <       0.47546145 Ry

     iteration #  3     ecut=   100.00 Ry     beta= 0.70
     Davidson diagonalization with overlap
     ethr =  9.91E-04,  avg # of iterations =  2.0

     total cpu time spent up to now is    10886.8 secs

     total energy              =    -156.46869394 Ry
     estimated scf accuracy    <       0.00570887 Ry

     iteration #  4     ecut=   100.00 Ry     beta= 0.70
     Davidson diagonalization with overlap
     ethr =  1.19E-05,  avg # of iterations =  3.4

     total cpu time spent up to now is    10907.5 secs

     total energy              =    -156.47083910 Ry
     estimated scf accuracy    <       0.00230601 Ry

     iteration #  5     ecut=   100.00 Ry     beta= 0.70
     Davidson diagonalization with overlap
     ethr =  4.80E-06,  avg # of iterations =  3.2

     total cpu time spent up to now is    10924.9 secs

     total energy              =    -156.47149009 Ry
     estimated scf accuracy    <       0.00005482 Ry

     iteration #  6     ecut=   100.00 Ry     beta= 0.70
     Davidson diagonalization with overlap
     ethr =  1.14E-07,  avg # of iterations =  5.9

     total cpu time spent up to now is    10952.1 secs

     total energy              =    -156.47158874 Ry
     estimated scf accuracy    <       0.00001864 Ry

     iteration #  7     ecut=   100.00 Ry     beta= 0.70
     Davidson diagonalization with overlap
     ethr =  3.88E-08,  avg # of iterations =  2.6

     total cpu time spent up to now is    10969.3 secs

     total energy              =    -156.47159316 Ry
     estimated scf accuracy    <       0.00000009 Ry

     iteration #  8     ecut=   100.00 Ry     beta= 0.70
     Davidson diagonalization with overlap
     ethr =  1.77E-10,  avg # of iterations =  7.8

     total cpu time spent up to now is    11004.6 secs

     total energy              =    -156.47159362 Ry
     estimated scf accuracy    <       0.00000003 Ry

     iteration #  9     ecut=   100.00 Ry     beta= 0.70
     Davidson diagonalization with overlap
     ethr =  7.13E-11,  avg # of iterations =  2.2

     total cpu time spent up to now is    11019.6 secs

     total energy              =    -156.47159362 Ry
     estimated scf accuracy    <          7.2E-09 Ry

     iteration # 10     ecut=   100.00 Ry     beta= 0.70
     Davidson diagonalization with overlap
     ethr =  1.51E-11,  avg # of iterations =  3.2

     total cpu time spent up to now is    11038.0 secs

     total energy              =    -156.47159362 Ry
     estimated scf accuracy    <          7.6E-11 Ry

     iteration # 11     ecut=   100.00 Ry     beta= 0.70
     Davidson diagonalization with overlap
     ethr =  1.59E-13,  avg # of iterations =  9.5

     total cpu time spent up to now is    11081.8 secs

     total energy              =    -156.47159362 Ry
     estimated scf accuracy    <          1.1E-10 Ry

     iteration # 12     ecut=   100.00 Ry     beta= 0.70
     Davidson diagonalization with overlap
     ethr =  1.59E-13,  avg # of iterations =  2.1

     total cpu time spent up to now is    11100.1 secs

     total energy              =    -156.47159362 Ry
     estimated scf accuracy    <          6.6E-12 Ry

     iteration # 13     ecut=   100.00 Ry     beta= 0.70
     Davidson diagonalization with overlap
     ethr =  1.00E-13,  avg # of iterations =  1.0

     total cpu time spent up to now is    11113.3 secs

     total energy              =    -156.47159362 Ry
     estimated scf accuracy    <          1.6E-12 Ry

     iteration # 14     ecut=   100.00 Ry     beta= 0.70
     Davidson diagonalization with overlap
     ethr =  1.00E-13,  avg # of iterations =  1.0

     total cpu time spent up to now is    11126.4 secs

     End of self-consistent calculation

          k = 0.0000 0.0000 0.0000 ( 25815 PWs)   bands (ev):

   -24.4249 -24.4186  -9.9198  -9.8642  -9.6797  -9.6448  -9.5943  -9.5441
    -6.3460  -5.4881  -4.9234  -4.8369  -2.0560  -1.1217  -1.0983  -0.7617
    -0.6275  -0.4987  -0.4075  -0.3034  -0.0394   0.2368   0.2605   0.2848

          k = 0.0000 0.0000 0.3699 ( 25864 PWs)   bands (ev):

   -24.4174 -24.4129  -9.8493  -9.8304  -9.8300  -9.7921  -9.6611  -9.6394
    -5.8535  -5.2082  -5.0965  -5.0393  -1.6531  -1.5141  -1.2101  -0.8920
    -0.7569  -0.6917  -0.3593  -0.1250   0.0406   0.0768   0.1022   0.2234

          k = 0.0000 0.0000-0.7398 ( 25892 PWs)   bands (ev):

   -24.4084 -24.4084 -10.0703 -10.0703  -9.6929  -9.6929  -9.6713  -9.6713
    -5.2622  -5.2622  -5.1626  -5.1626  -1.5791  -1.5790  -1.4161  -1.4160
    -0.3889  -0.3888  -0.3846  -0.3845   0.0153   0.0154   0.1162   0.1163

          k = 0.0000 0.2437 0.0000 ( 25890 PWs)   bands (ev):

   -24.4240 -24.4196  -9.8949  -9.8397  -9.7173  -9.6754  -9.5868  -9.5514
    -6.1797  -5.4641  -5.1148  -4.9231  -1.7840  -1.3118  -1.1647  -0.5237
    -0.5015  -0.4864  -0.3781  -0.2021  -0.0585  -0.0414   0.1756   0.2186

          k = 0.0000 0.2437 0.3699 ( 25885 PWs)   bands (ev):

   -24.4167 -24.4135  -9.8784  -9.8508  -9.7799  -9.7709  -9.6688  -9.6575
    -5.7595  -5.2809  -5.1295  -5.0642  -1.5333  -1.5167  -1.3377  -0.7453
    -0.7133  -0.5151  -0.4757  -0.1093  -0.0170   0.0421   0.1029   0.1269

          k = 0.0000 0.2437-0.7398 ( 25886 PWs)   bands (ev):

   -24.4084 -24.4084 -10.0794 -10.0794  -9.6798  -9.6798  -9.6714  -9.6714
    -5.4783  -5.4783  -4.9370  -4.9370  -1.7166  -1.7166  -1.2429  -1.2429
    -0.3572  -0.3570  -0.3174  -0.3173  -0.0425  -0.0423   0.0439   0.0440

          k = 0.0000-0.4874 0.0000 ( 25954 PWs)   bands (ev):

   -24.4218 -24.4218  -9.8335  -9.8335  -9.7394  -9.7394  -9.5690  -9.5690
    -5.7677  -5.7677  -5.1114  -5.1114  -1.4913  -1.4913  -0.7776  -0.7776
    -0.5393  -0.5393  -0.1694  -0.1694  -0.0899  -0.0899   0.0730   0.0730

          k = 0.0000-0.4874 0.3699 ( 25900 PWs)   bands (ev):

   -24.4151 -24.4151  -9.8786  -9.8786  -9.7410  -9.7410  -9.6855  -9.6855
    -5.5241  -5.5241  -5.1108  -5.1108  -1.5276  -1.5276  -1.0547  -1.0547
    -0.5135  -0.5135  -0.1876  -0.1876  -0.1253  -0.1253   0.0969   0.0969

          k = 0.0000-0.4874-0.7398 ( 25932 PWs)   bands (ev):

   -24.4084 -24.4084 -10.0880 -10.0880  -9.6715  -9.6715  -9.6673  -9.6673
    -5.5833  -5.5833  -4.8223  -4.8223  -1.8100  -1.8100  -1.0555  -1.0555
    -0.3544  -0.3544  -0.2692  -0.2692  -0.2382  -0.2382   0.1023   0.1023

          k = 0.2441 0.0000 0.0000 ( 25894 PWs)   bands (ev):

   -24.4240 -24.4196  -9.8889  -9.8441  -9.7128  -9.6841  -9.5869  -9.5514
    -6.1899  -5.5393  -4.9576  -4.9542  -1.8637  -1.0760  -1.0204  -0.8830
    -0.4511  -0.4041  -0.3876  -0.3106  -0.1073  -0.0852   0.1729   0.2194

          k = 0.2441 0.0000 0.3699 ( 25891 PWs)   bands (ev):

   -24.4167 -24.4135  -9.8732  -9.8547  -9.8010  -9.7541  -9.6788  -9.6487
    -5.7374  -5.2128  -5.1448  -5.1169  -1.6290  -1.4438  -1.3559  -0.7699
    -0.7213  -0.5489  -0.3871  -0.1932  -0.0750   0.0662   0.1509   0.1823

          k = 0.2441 0.0000-0.7398 ( 25894 PWs)   bands (ev):

   -24.4084 -24.4084 -10.0817 -10.0817  -9.6853  -9.6853  -9.6664  -9.6664
    -5.3732  -5.3732  -5.0327  -5.0327  -1.9059  -1.9059  -1.0859  -1.0858
    -0.3821  -0.3821  -0.2501  -0.2499  -0.0886  -0.0884   0.1099   0.1099

          k = 0.2441 0.2437 0.0000 ( 25881 PWs)   bands (ev):

   -24.4234 -24.4202  -9.9108  -9.8231  -9.7489  -9.6530  -9.5815  -9.5565
    -6.0765  -5.5568  -5.1125  -4.9507  -1.6596  -1.2922  -1.0462  -0.6254
    -0.5442  -0.4879  -0.2951  -0.1804  -0.1800  -0.0506   0.0643   0.1823

          k = 0.2441 0.2437 0.3699 ( 25917 PWs)   bands (ev):

   -24.4162 -24.4140  -9.8728  -9.8476  -9.8240  -9.7401  -9.6848  -9.6440
    -5.6612  -5.2649  -5.1943  -5.1119  -1.6083  -1.4519  -1.3411  -0.8234
    -0.6163  -0.4971  -0.3692  -0.1445  -0.1168   0.0118   0.1194   0.1827

          k = 0.2441 0.2437-0.7398 ( 25928 PWs)   bands (ev):

   -24.4084 -24.4084 -10.0870 -10.0715  -9.6960  -9.6773  -9.6697  -9.6662
    -5.5150  -5.3485  -5.0544  -4.8814  -1.9356  -1.7943  -1.2427  -1.0554
    -0.4387  -0.3963  -0.1947  -0.1239  -0.1153  -0.0411   0.0570   0.1180

          k = 0.2441-0.4874 0.0000 ( 25852 PWs)   bands (ev):

   -24.4218 -24.4218  -9.8881  -9.8881  -9.6829  -9.6829  -9.5689  -9.5689
    -5.7913  -5.7913  -5.0829  -5.0829  -1.4227  -1.4227  -0.8186  -0.8186
    -0.5735  -0.5735  -0.2112  -0.2112  -0.0532  -0.0532   0.0616   0.0616

          k = 0.2441-0.4874 0.3699 ( 25910 PWs)   bands (ev):

   -24.4151 -24.4151  -9.8676  -9.8676  -9.7837  -9.7837  -9.6569  -9.6569
    -5.4716  -5.4716  -5.1544  -5.1544  -1.5584  -1.5584  -1.0758  -1.0758
    -0.5042  -0.5042  -0.2156  -0.2156  -0.0275  -0.0275   0.0892   0.0892

          k = 0.2441-0.4874-0.7398 ( 25936 PWs)   bands (ev):

   -24.4084 -24.4084 -10.0773 -10.0773  -9.6831  -9.6831  -9.6739  -9.6739
    -5.5017  -5.5017  -4.8914  -4.8914  -1.8358  -1.8358  -1.2112  -1.2112
    -0.3548  -0.3548  -0.2105  -0.2105  -0.0449  -0.0449   0.0960   0.0960

          k =-0.4882 0.0000 0.0000 ( 25930 PWs)   bands (ev):

   -24.4218 -24.4218  -9.8230  -9.8230  -9.7523  -9.7523  -9.5691  -9.5691
    -5.8244  -5.8244  -5.0165  -5.0165  -1.4718  -1.4718  -0.6742  -0.6742
    -0.3977  -0.3977  -0.3974  -0.3974  -0.2510  -0.2510   0.0600   0.0600

          k =-0.4882 0.0000 0.3699 ( 25916 PWs)   bands (ev):

   -24.4151 -24.4151  -9.8790  -9.8790  -9.7522  -9.7522  -9.6782  -9.6782
    -5.4564  -5.4564  -5.1569  -5.1569  -1.5655  -1.5655  -1.0740  -1.0740
    -0.4794  -0.4794  -0.3462  -0.3462  -0.0158  -0.0158   0.1367   0.1367

          k =-0.4882 0.0000-0.7398 ( 25916 PWs)   bands (ev):

   -24.4084 -24.4084 -10.0925 -10.0925  -9.6810  -9.6810  -9.6590  -9.6590
    -5.4312  -5.4312  -4.9547  -4.9547  -2.0757  -2.0757  -0.8521  -0.8521
    -0.3682  -0.3682  -0.3555  -0.3555   0.0286   0.0286   0.0587   0.0587

          k =-0.4882 0.2437 0.0000 ( 25860 PWs)   bands (ev):

   -24.4218 -24.4218  -9.8863  -9.8863  -9.6859  -9.6859  -9.5689  -9.5689
    -5.8191  -5.8191  -5.0360  -5.0360  -1.4163  -1.4163  -0.7464  -0.7464
    -0.5303  -0.5303  -0.3718  -0.3718  -0.1061  -0.1061   0.0853   0.0853

          k =-0.4882 0.2437 0.3699 ( 25908 PWs)   bands (ev):

   -24.4151 -24.4151  -9.8676  -9.8676  -9.7872  -9.7872  -9.6555  -9.6555
    -5.4306  -5.4306  -5.1845  -5.1845  -1.5741  -1.5741  -1.1030  -1.1030
    -0.4345  -0.4345  -0.3143  -0.3143   0.0122   0.0122   0.1039   0.1039

          k =-0.4882 0.2437-0.7398 ( 25944 PWs)   bands (ev):

   -24.4084 -24.4084 -10.0797 -10.0797  -9.6875  -9.6875  -9.6700  -9.6700
    -5.4132  -5.4132  -4.9701  -4.9701  -1.9932  -1.9932  -1.0790  -1.0790
    -0.3368  -0.3368  -0.2806  -0.2806   0.0059   0.0059   0.1547   0.1547

          k =-0.4882-0.4874 0.0000 ( 25932 PWs)   bands (ev):

   -24.4218 -24.4218  -9.9218  -9.9218  -9.6473  -9.6473  -9.5687  -9.5687
    -5.8137  -5.8137  -5.0552  -5.0552  -1.3416  -1.3416  -0.8747  -0.8747
    -0.6035  -0.6035  -0.2407  -0.2407  -0.0208  -0.0208   0.0397   0.0397

          k =-0.4882-0.4874 0.3699 ( 25900 PWs)   bands (ev):

   -24.4151 -24.4151  -9.8363  -9.8363  -9.8342  -9.8342  -9.6408  -9.6408
    -5.3979  -5.3979  -5.2191  -5.2191  -1.5739  -1.5739  -1.1513  -1.1513
    -0.4132  -0.4132  -0.1310  -0.1310  -0.1074  -0.1074   0.1012   0.1012

          k =-0.4882-0.4874-0.7398 ( 25960 PWs)   bands (ev):

   -24.4084 -24.4084 -10.0658 -10.0658  -9.6994  -9.6994  -9.6766  -9.6766
    -5.3942  -5.3942  -4.9863  -4.9863  -1.8574  -1.8574  -1.3456  -1.3456
    -0.2882  -0.2882  -0.0955  -0.0955  -0.0773  -0.0773   0.1669   0.1669

     highest occupied level (ev):     0.2848

!    total energy              =    -156.47159362 Ry
     estimated scf accuracy    <          3.6E-14 Ry

     The total energy is the sum of the following terms:
     one-electron contribution =     -30.07258270 Ry
     hartree contribution      =      28.54240259 Ry
     xc contribution           =     -49.06367914 Ry
     ewald contribution        =    -105.87773437 Ry

     convergence has been achieved in  14 iterations

     Forces acting on atoms (cartesian axes, Ry/au):

     atom    1 type  2   force =     0.00000000    0.00000000   -0.00000432
     atom    2 type  2   force =     0.00000000    0.00000000    0.00000432
     atom    3 type  1   force =    -0.00000083    0.00000637   -0.00000411
     atom    4 type  1   force =     0.00000083   -0.00000637   -0.00000411
     atom    5 type  1   force =    -0.00000083   -0.00000637    0.00000411
     atom    6 type  1   force =     0.00000083    0.00000637    0.00000411
     atom    7 type  3   force =     0.00000459   -0.00000157    0.00000944
     atom    8 type  3   force =    -0.00000459    0.00000157    0.00000944
     atom    9 type  3   force =     0.00000459    0.00000157   -0.00000944
     atom   10 type  3   force =    -0.00000459   -0.00000157   -0.00000944
     atom   11 type  3   force =    -0.00000216   -0.00000219    0.00000040
     atom   12 type  3   force =     0.00000216    0.00000219    0.00000040
     atom   13 type  3   force =    -0.00000216    0.00000219   -0.00000040
     atom   14 type  3   force =     0.00000216   -0.00000219   -0.00000040
     atom   15 type  3   force =     0.00000151   -0.00000128   -0.00000104
     atom   16 type  3   force =    -0.00000151    0.00000128   -0.00000104
     atom   17 type  3   force =     0.00000151    0.00000128    0.00000104
     atom   18 type  3   force =    -0.00000151   -0.00000128    0.00000104
     atom   19 type  3   force =     0.00000577   -0.00000363   -0.00000400
     atom   20 type  3   force =    -0.00000577    0.00000363   -0.00000400
     atom   21 type  3   force =     0.00000577    0.00000363    0.00000400
     atom   22 type  3   force =    -0.00000577   -0.00000363    0.00000400

     Total force =     0.000032     Total SCF correction =     0.000000


     Computing stress (Cartesian axis) and pressure

          total   stress  (Ry/bohr**3)                   (kbar)     P=       -7.10
  -0.00004821   0.00000000   0.00000000           -7.09        0.00        0.00
   0.00000000  -0.00004824   0.00000000            0.00       -7.10        0.00
   0.00000000   0.00000000  -0.00004830            0.00        0.00       -7.11


     Writing all to output data dir ./pwscf.save/ :
     XML data file, charge density, pseudopotentials, collected wavefunctions

     init_run     :     20.30s CPU     22.12s WALL (       2 calls)
     electrons    :   9067.53s CPU   9138.61s WALL (      61 calls)
     update_pot   :     14.90s CPU     16.30s WALL (      59 calls)
     forces       :    212.79s CPU    214.57s WALL (      61 calls)
     stress       :   1744.82s CPU   1748.89s WALL (      61 calls)

     Called by init_run:
     wfcinit      :     16.29s CPU     16.45s WALL (       2 calls)
     potinit      :      0.80s CPU      1.26s WALL (       2 calls)
     hinit0       :      1.38s CPU      2.49s WALL (       2 calls)

     Called by electrons:
     c_bands      :   7979.52s CPU   8032.39s WALL (     475 calls)
     sum_band     :    933.15s CPU    943.21s WALL (     475 calls)
     v_of_rho     :     65.72s CPU     68.77s WALL (     496 calls)
     newd         :     91.57s CPU     93.53s WALL (     496 calls)
     mix_rho      :      7.33s CPU      8.08s WALL (     475 calls)

     Called by c_bands:
     init_us_2    :    110.53s CPU    112.47s WALL (   28998 calls)
     cegterg      :   7661.82s CPU   7712.25s WALL (   12825 calls)

     Called by *egterg:
     cdiaghg      :     95.65s CPU     96.25s WALL (   54103 calls)
     h_psi        :   5533.23s CPU   5575.12s WALL (   56830 calls)
     s_psi        :    950.85s CPU    954.17s WALL (   56830 calls)
     g_psi        :     13.14s CPU     13.21s WALL (   43951 calls)

     Called by h_psi:
     h_psi:calbec :    854.52s CPU    858.36s WALL (   56830 calls)
     vloc_psi     :   3716.08s CPU   3751.13s WALL (   56830 calls)
     add_vuspsi   :    954.47s CPU    957.75s WALL (   56830 calls)

     General routines
     calbec       :   2419.57s CPU   2426.10s WALL (   77890 calls)
     fft          :     63.16s CPU     69.46s WALL (    7950 calls)
     ffts         :      3.19s CPU      3.84s WALL (     971 calls)
     fftw         :   3841.52s CPU   3876.57s WALL ( 2278754 calls)
     interpolate  :      5.24s CPU      6.18s WALL (     496 calls)

     Parallel routines

     PWSCF        :      3h 4m CPU      3h 5m WALL


   This run was terminated on:  17:48:27   6Aug2024            

=------------------------------------------------------------------------------=
   JOB DONE.
=------------------------------------------------------------------------------=
