
     Program PWSCF v.7.3.1 starts on 12Aug2024 at 11:12:53 

     This program is part of the open-source Quantum ESPRESSO suite
     for quantum simulation of materials; please cite
         "P. Giannozzi et al., J. Phys.:Condens. Matter 21 395502 (2009);
         "P. Giannozzi et al., J. Phys.:Condens. Matter 29 465901 (2017);
         "P. Giannozzi et al., J. Chem. Phys. 152 154105 (2020);
          URL http://www.quantum-espresso.org", 
     in publications or presentations arising from this work. More details at
     http://www.quantum-espresso.org/quote

     Parallel version (MPI), running on    24 processors

     MPI processes distributed on     1 nodes
     93568 MiB available memory on the printing compute node when the environment starts

     Waiting for input...
     Reading input from standard input

     Current dimensions of program PWSCF are:
     Max number of different atomic species (ntypx) = 10
     Max number of k-points (npk) =  40000
     Max angular momentum in pseudopotentials (lmaxx) =  4

     R & G space division:  proc/nbgrp/npool/nimage =      24
     Subspace diagonalization in iterative solution of the eigenvalue problem:
     a serial algorithm will be used


     Parallelization info
     --------------------
     sticks:   dense  smooth     PW     G-vecs:    dense   smooth      PW
     Min         456     227     61                23976     8475    1189
     Max         457     228     62                23979     8478    1192
     Sum       10955    5469   1481               575437   203443   28581

     Using Slab Decomposition


     Title: 
     pre-ph                                                                     


     bravais-lattice index     =            8
     lattice parameter (alat)  =      13.0626  a.u.
     unit-cell volume          =    1505.4537 (a.u.)^3
     number of atoms/cell      =           22
     number of atomic types    =            3
     number of electrons       =        48.00
     number of Kohn-Sham states=           24
     kinetic-energy cutoff     =     100.0000  Ry
     charge density cutoff     =     800.0000  Ry
     scf convergence threshold =      1.0E-10
     mixing beta               =       0.7000
     number of iterations used =            8  plain     mixing
     Exchange-correlation= PBESOL
                           (   1   4  10   8   0   0   0)

     celldm(1)=  13.062569  celldm(2)=   1.008275  celldm(3)=   0.669889
     celldm(4)=   0.000000  celldm(5)=   0.000000  celldm(6)=   0.000000

     crystal axes: (cart. coord. in units of alat)
               a(1) = (   1.000000   0.000000   0.000000 )  
               a(2) = (   0.000000   1.008275   0.000000 )  
               a(3) = (   0.000000   0.000000   0.669889 )  

     reciprocal axes: (cart. coord. in units 2 pi/alat)
               b(1) = (  1.000000  0.000000  0.000000 )  
               b(2) = (  0.000000  0.991793  0.000000 )  
               b(3) = (  0.000000  0.000000  1.492785 )  


     PseudoPot. # 1 for B  read from file:
     /home/mehlhorn/pseudos/b_pbesol_v1.4.uspp.F.UPF
     MD5 check sum: 369b69bef2c3aeed4453bd8b804fd6a8
     Pseudo is Ultrasoft + core correction, Zval =  3.0
     Generated by new atomic code, or converted to UPF format
     Using radial grid of  781 points,  4 beta functions with: 
                l(1) =   0
                l(2) =   0
                l(3) =   1
                l(4) =   1
     Q(r) pseudized with  8 coefficients,  rinner =    1.100   1.100   1.100


     PseudoPot. # 2 for Ba read from file:
     /home/mehlhorn/pseudos/Ba.nc.z_10.oncvpsp4.dojo.v4-sp.upf
     MD5 check sum: c10ed334bb677c0554edec7181ce9143
     Pseudo is Norm-conserving + core correction, Zval = 10.0
     Generated using ONCVPSP code by D. R. Hamann
     Using radial grid of 1938 points,  8 beta functions with: 
                l(1) =   0
                l(2) =   0
                l(3) =   1
                l(4) =   1
                l(5) =   2
                l(6) =   2
                l(7) =   3
                l(8) =   3

     PseudoPot. # 3 for H  read from file:
     /home/mehlhorn/pseudos/H_ONCV_PBEsol-1.0.upf
     MD5 check sum: 398ef8f67c0a7342c05c87c5e19ea467
     Pseudo is Norm-conserving, Zval =  1.0
     Generated using ONCVPSP code by D. R. Hamann
     Using radial grid of 1180 points,  2 beta functions with: 
                l(1) =   0
                l(2) =   0

     atomic species   valence    mass     pseudopotential
     B                 3.00    10.81100     B ( 1.00)
     Ba               10.00   137.32700     Ba( 1.00)
     H                 1.00     1.00794     H ( 1.00)

      4 Sym. Ops. (no inversion) found ( 2 have fractional translation)



   Cartesian axes

     site n.     atom                  positions (alat units)
         1        Ba     tau(   1) = (   0.5000000   0.5041375   0.3349464  )
         2        Ba     tau(   2) = (   0.0000000   0.0000000   0.6698866  )
         3        B      tau(   3) = (   0.6199028   0.2491214   0.0000021  )
         4        B      tau(   4) = (   0.3800972   0.7591537   0.0000021  )
         5        B      tau(   5) = (   0.1199028   0.2550162   0.3349422  )
         6        B      tau(   6) = (   0.8800972   0.7532589   0.3349422  )
         7        H      tau(   7) = (   0.4465500   0.2908848  -0.0000132  )
         8        H      tau(   8) = (   0.5534500   0.7173903  -0.0000132  )
         9        H      tau(   9) = (   0.9465500   0.2132528   0.3349575  )
        10        H      tau(  10) = (   0.0534500   0.7950223   0.3349575  )
        11        H      tau(  11) = (   0.7186284   0.3986060   0.0000030  )
        12        H      tau(  12) = (   0.2813716   0.6096691   0.0000030  )
        13        H      tau(  13) = (   0.2186284   0.1055315   0.3349413  )
        14        H      tau(  14) = (   0.7813716   0.9027435   0.3349413  )
        15        H      tau(  15) = (   0.6538704   0.1549260   0.5227910  )
        16        H      tau(  16) = (   0.3461296   0.8533490   0.5227910  )
        17        H      tau(  17) = (   0.1538704   0.3492115   0.4820419  )
        18        H      tau(  18) = (   0.8461296   0.6590635   0.4820419  )
        19        H      tau(  19) = (   0.3461395   0.8533469   0.1471063  )
        20        H      tau(  20) = (   0.6538605   0.1549281   0.1471063  )
        21        H      tau(  21) = (   0.8461395   0.6590657   0.1878380  )
        22        H      tau(  22) = (   0.1538605   0.3492094   0.1878380  )

     number of k points=    27
                       cart. coord. in units 2pi/alat
        k(    1) = (   0.0000000   0.0000000   0.0000000), wk =   0.0160000
        k(    2) = (   0.0000000   0.0000000   0.2985571), wk =   0.0320000
        k(    3) = (   0.0000000   0.0000000   0.5971142), wk =   0.0320000
        k(    4) = (   0.0000000   0.1983586   0.0000000), wk =   0.0320000
        k(    5) = (   0.0000000   0.1983586   0.2985571), wk =   0.0640000
        k(    6) = (   0.0000000   0.1983586   0.5971142), wk =   0.0640000
        k(    7) = (   0.0000000   0.3967171   0.0000000), wk =   0.0320000
        k(    8) = (   0.0000000   0.3967171   0.2985571), wk =   0.0640000
        k(    9) = (   0.0000000   0.3967171   0.5971142), wk =   0.0640000
        k(   10) = (   0.2000000   0.0000000   0.0000000), wk =   0.0320000
        k(   11) = (   0.2000000   0.0000000   0.2985571), wk =   0.0640000
        k(   12) = (   0.2000000   0.0000000   0.5971142), wk =   0.0640000
        k(   13) = (   0.2000000   0.1983586   0.0000000), wk =   0.0640000
        k(   14) = (   0.2000000   0.1983586   0.2985571), wk =   0.1280000
        k(   15) = (   0.2000000   0.1983586   0.5971142), wk =   0.1280000
        k(   16) = (   0.2000000   0.3967171   0.0000000), wk =   0.0640000
        k(   17) = (   0.2000000   0.3967171   0.2985571), wk =   0.1280000
        k(   18) = (   0.2000000   0.3967171   0.5971142), wk =   0.1280000
        k(   19) = (   0.4000000   0.0000000   0.0000000), wk =   0.0320000
        k(   20) = (   0.4000000   0.0000000   0.2985571), wk =   0.0640000
        k(   21) = (   0.4000000   0.0000000   0.5971142), wk =   0.0640000
        k(   22) = (   0.4000000   0.1983586   0.0000000), wk =   0.0640000
        k(   23) = (   0.4000000   0.1983586   0.2985571), wk =   0.1280000
        k(   24) = (   0.4000000   0.1983586   0.5971142), wk =   0.1280000
        k(   25) = (   0.4000000   0.3967171   0.0000000), wk =   0.0640000
        k(   26) = (   0.4000000   0.3967171   0.2985571), wk =   0.1280000
        k(   27) = (   0.4000000   0.3967171   0.5971142), wk =   0.1280000

     Dense  grid:   575437 G-vectors     FFT dimensions: ( 120, 120,  80)

     Smooth grid:   203443 G-vectors     FFT dimensions: (  90,  90,  60)

     Estimated max dynamical RAM per process >      69.05 MB

     Estimated total dynamical RAM >       1.62 GB

     Initial potential from superposition of free atoms

     starting charge      47.9682, renormalised to      48.0000
     Starting wfcs are   42 randomized atomic wfcs

     total cpu time spent up to now is       11.9 secs

     Self-consistent Calculation

     iteration #  1     ecut=   100.00 Ry     beta= 0.70
     Davidson diagonalization with overlap
     ethr =  1.00E-02,  avg # of iterations =  2.0

     total cpu time spent up to now is       28.3 secs

     total energy              =    -155.91685828 Ry
     estimated scf accuracy    <       2.12964318 Ry

     iteration #  2     ecut=   100.00 Ry     beta= 0.70
     Davidson diagonalization with overlap
     ethr =  4.44E-03,  avg # of iterations =  2.0

     total cpu time spent up to now is       44.0 secs

     total energy              =    -156.40588168 Ry
     estimated scf accuracy    <       0.37802427 Ry

     iteration #  3     ecut=   100.00 Ry     beta= 0.70
     Davidson diagonalization with overlap
     ethr =  7.88E-04,  avg # of iterations =  2.0

     total cpu time spent up to now is       59.7 secs

     total energy              =    -156.46920685 Ry
     estimated scf accuracy    <       0.00491872 Ry

     iteration #  4     ecut=   100.00 Ry     beta= 0.70
     Davidson diagonalization with overlap
     ethr =  1.02E-05,  avg # of iterations =  5.1

     total cpu time spent up to now is       82.5 secs

     total energy              =    -156.47223189 Ry
     estimated scf accuracy    <       0.00177926 Ry

     iteration #  5     ecut=   100.00 Ry     beta= 0.70
     Davidson diagonalization with overlap
     ethr =  3.71E-06,  avg # of iterations =  3.4

     total cpu time spent up to now is       98.8 secs

     total energy              =    -156.47284402 Ry
     estimated scf accuracy    <       0.00018173 Ry

     iteration #  6     ecut=   100.00 Ry     beta= 0.70
     Davidson diagonalization with overlap
     ethr =  3.79E-07,  avg # of iterations =  4.2

     total cpu time spent up to now is      117.1 secs

     total energy              =    -156.47291444 Ry
     estimated scf accuracy    <       0.00000111 Ry

     iteration #  7     ecut=   100.00 Ry     beta= 0.70
     Davidson diagonalization with overlap
     ethr =  2.30E-09,  avg # of iterations = 10.8

     total cpu time spent up to now is      159.8 secs

     total energy              =    -156.47292574 Ry
     estimated scf accuracy    <       0.00000089 Ry

     iteration #  8     ecut=   100.00 Ry     beta= 0.70
     Davidson diagonalization with overlap
     ethr =  1.86E-09,  avg # of iterations =  2.0

     total cpu time spent up to now is      175.4 secs

     total energy              =    -156.47292586 Ry
     estimated scf accuracy    <       0.00000004 Ry

     iteration #  9     ecut=   100.00 Ry     beta= 0.70
     Davidson diagonalization with overlap
     ethr =  7.74E-11,  avg # of iterations =  5.7

     total cpu time spent up to now is      195.8 secs

     total energy              =    -156.47292589 Ry
     estimated scf accuracy    <          3.9E-09 Ry

     iteration # 10     ecut=   100.00 Ry     beta= 0.70
     Davidson diagonalization with overlap
     ethr =  8.08E-12,  avg # of iterations =  4.0

     total cpu time spent up to now is      214.5 secs

     End of self-consistent calculation

          k = 0.0000 0.0000 0.0000 ( 25415 PWs)   bands (ev):

   -24.2696 -24.2626  -9.7768  -9.7115  -9.5260  -9.4890  -9.4449  -9.3912
    -6.2458  -5.3613  -4.7662  -4.6621  -1.9459  -1.0138  -1.0078  -0.6483
    -0.4362  -0.3524  -0.2354  -0.1925   0.0795   0.3968   0.4000   0.4380

          k = 0.0000 0.0000 0.2986 ( 25418 PWs)   bands (ev):

   -24.2644 -24.2587  -9.7157  -9.6642  -9.6246  -9.5959  -9.5122  -9.4854
    -5.9060  -5.1635  -4.8854  -4.8054  -1.6642  -1.3087  -0.9128  -0.8743
    -0.5702  -0.4847  -0.2128  -0.0596   0.1781   0.2594   0.2834   0.4143

          k = 0.0000 0.0000 0.5971 ( 25426 PWs)   bands (ev):

   -24.2552 -24.2531  -9.8803  -9.8748  -9.5903  -9.5685  -9.5084  -9.4974
    -5.2798  -5.0774  -5.0501  -4.9673  -1.4721  -1.3898  -1.3084  -1.1023
    -0.4964  -0.4794  -0.1573  -0.0536   0.1426   0.1805   0.2845   0.3207

          k = 0.0000 0.1984 0.0000 ( 25410 PWs)   bands (ev):

   -24.2689 -24.2632  -9.7599  -9.6940  -9.5544  -9.5101  -9.4397  -9.3962
    -6.1309  -5.3249  -4.9218  -4.7272  -1.7416  -1.1512  -1.0768  -0.4463
    -0.3826  -0.3373  -0.2680  -0.0763   0.0958   0.2004   0.3452   0.3877

          k = 0.0000 0.1984 0.2986 ( 25422 PWs)   bands (ev):

   -24.2638 -24.2592  -9.7140  -9.6502  -9.6181  -9.6101  -9.5124  -9.4996
    -5.8213  -5.1367  -4.9993  -4.8439  -1.5260  -1.3350  -1.1165  -0.6097
    -0.4933  -0.4357  -0.3772   0.0189   0.1620   0.2524   0.2592   0.3108

          k = 0.0000 0.1984 0.5971 ( 25452 PWs)   bands (ev):

   -24.2550 -24.2533  -9.8882  -9.8831  -9.5734  -9.5590  -9.5089  -9.5026
    -5.3764  -5.2533  -4.9255  -4.8142  -1.5162  -1.4514  -1.2621  -1.0266
    -0.4434  -0.3275  -0.1775  -0.0527   0.0940   0.1262   0.2376   0.2823

          k = 0.0000 0.3967 0.0000 ( 25356 PWs)   bands (ev):

   -24.2671 -24.2650  -9.7123  -9.6644  -9.6030  -9.5626  -9.4261  -9.4095
    -5.8241  -5.4399  -5.0501  -4.8889  -1.4178  -1.3048  -0.9350  -0.4224
    -0.4117  -0.3688  -0.1259  -0.0112   0.0370   0.0970   0.2156   0.2983

          k = 0.0000 0.3967 0.2986 ( 25424 PWs)   bands (ev):

   -24.2624 -24.2606  -9.6987  -9.6636  -9.6127  -9.5893  -9.5273  -9.5229
    -5.5919  -5.2874  -5.0450  -4.9388  -1.3630  -1.3521  -1.0665  -0.6987
    -0.4097  -0.3508  -0.2343   0.0103   0.0334   0.0737   0.2820   0.2832

          k = 0.0000 0.3967 0.5971 ( 25445 PWs)   bands (ev):

   -24.2545 -24.2538  -9.8989  -9.8967  -9.5407  -9.5387  -9.5170  -9.5162
    -5.4527  -5.4105  -4.7738  -4.7242  -1.5803  -1.5676  -1.0527  -0.9227
    -0.3406  -0.2653  -0.1521  -0.0983   0.0049   0.0798   0.1488   0.2562

          k = 0.2000 0.0000 0.0000 ( 25367 PWs)   bands (ev):

   -24.2689 -24.2632  -9.7551  -9.6985  -9.5499  -9.5176  -9.4397  -9.3962
    -6.1373  -5.3857  -4.7901  -4.7540  -1.8183  -0.9478  -0.8692  -0.8576
    -0.3183  -0.2598  -0.2383  -0.1981   0.0361   0.1267   0.3824   0.3978

          k = 0.2000 0.0000 0.2986 ( 25369 PWs)   bands (ev):

   -24.2638 -24.2592  -9.6991  -9.6781  -9.6142  -9.6013  -9.5260  -9.4893
    -5.8141  -5.1683  -4.9052  -4.8887  -1.5767  -1.3071  -1.0355  -0.7308
    -0.5583  -0.4261  -0.2468  -0.0183   0.0078   0.2416   0.3365   0.3725

          k = 0.2000 0.0000 0.5971 ( 25436 PWs)   bands (ev):

   -24.2550 -24.2533  -9.8901  -9.8852  -9.5791  -9.5539  -9.5141  -9.4980
    -5.2823  -5.1352  -5.0341  -4.9016  -1.7240  -1.5619  -1.1501  -0.8832
    -0.4586  -0.2970  -0.1324  -0.0911   0.0970   0.1891   0.2037   0.3287

          k = 0.2000 0.1984 0.0000 ( 25403 PWs)   bands (ev):

   -24.2684 -24.2638  -9.7649  -9.6667  -9.5991  -9.4985  -9.4355  -9.4003
    -6.0458  -5.3684  -4.9430  -4.7624  -1.6469  -1.1362  -0.9678  -0.5703
    -0.3931  -0.3328  -0.1143  -0.0700   0.0124   0.0845   0.2745   0.3620

          k = 0.2000 0.1984 0.2986 ( 25417 PWs)   bands (ev):

   -24.2634 -24.2597  -9.7083  -9.6624  -9.6351  -9.5878  -9.5276  -9.4909
    -5.7424  -5.1396  -5.0406  -4.8834  -1.4781  -1.3180  -1.1358  -0.6215
    -0.5268  -0.3952  -0.2600  -0.0279   0.0416   0.2011   0.2858   0.3520

          k = 0.2000 0.1984 0.5971 ( 25434 PWs)   bands (ev):

   -24.2548 -24.2534  -9.8972  -9.8796  -9.5866  -9.5349  -9.5204  -9.5010
    -5.3697  -5.1789  -4.9990  -4.8003  -1.7094  -1.5635  -1.1229  -0.9235
    -0.4108  -0.2563  -0.1544  -0.0303   0.0326   0.1560   0.2062   0.3210

          k = 0.2000 0.3967 0.0000 ( 25438 PWs)   bands (ev):

   -24.2669 -24.2652  -9.7506  -9.6996  -9.5739  -9.5181  -9.4244  -9.4110
    -5.7990  -5.4921  -5.0199  -4.8862  -1.3599  -1.2661  -0.9023  -0.4515
    -0.4332  -0.4270  -0.2153   0.0560   0.0610   0.1179   0.1798   0.2474

          k = 0.2000 0.3967 0.2986 ( 25408 PWs)   bands (ev):

   -24.2622 -24.2608  -9.7065  -9.6813  -9.6211  -9.5877  -9.5214  -9.5007
    -5.5479  -5.2873  -5.0585  -4.9583  -1.3848  -1.3305  -1.0614  -0.7595
    -0.3916  -0.3091  -0.2294  -0.0233   0.0434   0.1188   0.2527   0.2858

          k = 0.2000 0.3967 0.5971 ( 25429 PWs)   bands (ev):

   -24.2544 -24.2538  -9.8957  -9.8852  -9.5742  -9.5450  -9.5138  -9.5046
    -5.4100  -5.3386  -4.8346  -4.7563  -1.6684  -1.5990  -1.0484  -0.9583
    -0.3813  -0.2656  -0.1238  -0.0039   0.0608   0.1289   0.1713   0.2730

          k = 0.4000 0.0000 0.0000 ( 25372 PWs)   bands (ev):

   -24.2671 -24.2650  -9.6987  -9.6649  -9.6046  -9.5809  -9.4262  -9.4096
    -5.8593  -5.5470  -4.8615  -4.8435  -1.5219  -1.1871  -0.7344  -0.4718
    -0.3648  -0.2509  -0.2416  -0.1826  -0.0988  -0.0722   0.1957   0.2868

          k = 0.4000 0.0000 0.2986 ( 25406 PWs)   bands (ev):

   -24.2624 -24.2606  -9.6806  -9.6672  -9.6382  -9.5995  -9.5323  -9.5063
    -5.5744  -5.2933  -4.9815  -4.9516  -1.4253  -1.2526  -1.1164  -0.7472
    -0.4666  -0.2969  -0.2955  -0.1983   0.0620   0.1731   0.3140   0.3255

          k = 0.4000 0.0000 0.5971 ( 25405 PWs)   bands (ev):

   -24.2545 -24.2538  -9.9039  -9.9018  -9.5547  -9.5306  -9.5255  -9.5051
    -5.2728  -5.2258  -4.9411  -4.8782  -1.8797  -1.8132  -0.8840  -0.7213
    -0.3642  -0.2393  -0.1878  -0.0653   0.0683   0.1809   0.2372   0.2805

          k = 0.4000 0.1984 0.0000 ( 25394 PWs)   bands (ev):

   -24.2669 -24.2652  -9.7479  -9.6966  -9.5793  -9.5226  -9.4244  -9.4110
    -5.8229  -5.5525  -4.9230  -4.8425  -1.4268  -1.2082  -0.7311  -0.5146
    -0.3881  -0.3569  -0.3222  -0.1125  -0.0249   0.0410   0.1776   0.2936

          k = 0.4000 0.1984 0.2986 ( 25428 PWs)   bands (ev):

   -24.2622 -24.2608  -9.7011  -9.6804  -9.6321  -9.5950  -9.5193  -9.4966
    -5.5375  -5.2905  -5.0275  -4.9580  -1.4057  -1.2754  -1.1175  -0.7943
    -0.4209  -0.2775  -0.2283  -0.1343   0.0450   0.1511   0.2704   0.3151

          k = 0.4000 0.1984 0.5971 ( 25432 PWs)   bands (ev):

   -24.2544 -24.2538  -9.8989  -9.8886  -9.5765  -9.5474  -9.5127  -9.5029
    -5.3029  -5.1850  -4.9755  -4.8494  -1.8368  -1.7771  -0.9238  -0.8453
    -0.3541  -0.2337  -0.1789  -0.0598   0.1097   0.1680   0.2524   0.3294

          k = 0.4000 0.3967 0.0000 ( 25418 PWs)   bands (ev):

   -24.2664 -24.2657  -9.7772  -9.7578  -9.5152  -9.4918  -9.4200  -9.4149
    -5.7236  -5.6086  -4.9538  -4.9010  -1.2507  -1.2075  -0.8030  -0.6132
    -0.4787  -0.4659  -0.2196  -0.0310   0.1104   0.1353   0.1508   0.2089

          k = 0.4000 0.3967 0.2986 ( 25443 PWs)   bands (ev):

   -24.2618 -24.2612  -9.7179  -9.7092  -9.6150  -9.5998  -9.4963  -9.4869
    -5.4408  -5.3321  -5.0540  -5.0064  -1.3683  -1.3129  -1.0780  -0.9380
    -0.2620  -0.2160  -0.1486  -0.0388   0.0212   0.1315   0.1743   0.2471

          k = 0.4000 0.3967 0.5971 ( 25440 PWs)   bands (ev):

   -24.2542 -24.2540  -9.8816  -9.8743  -9.5944  -9.5793  -9.5039  -9.5020
    -5.2893  -5.2252  -4.9285  -4.8610  -1.7340  -1.7003  -1.0769  -1.0570
    -0.2800  -0.1923  -0.0486  -0.0317   0.1026   0.1169   0.2860   0.3214

     highest occupied level (ev):     0.4380

!    total energy              =    -156.47292589 Ry
     estimated scf accuracy    <          5.9E-11 Ry

     The total energy is the sum of the following terms:
     one-electron contribution =     -27.51975167 Ry
     hartree contribution      =      27.52453638 Ry
     xc contribution           =     -49.07538717 Ry
     ewald contribution        =    -107.40232343 Ry

     convergence has been achieved in  10 iterations

     Writing all to output data dir ./pwscf.save/ :
     XML data file, charge density, pseudopotentials, collected wavefunctions

     init_run     :      9.98s CPU     11.48s WALL (       1 calls)
     electrons    :    201.07s CPU    202.65s WALL (       1 calls)

     Called by init_run:
     wfcinit      :      7.50s CPU      7.57s WALL (       1 calls)
     potinit      :      0.55s CPU      1.05s WALL (       1 calls)
     hinit0       :      1.05s CPU      1.90s WALL (       1 calls)

     Called by electrons:
     c_bands      :    178.84s CPU    180.06s WALL (      10 calls)
     sum_band     :     18.91s CPU     19.12s WALL (      10 calls)
     v_of_rho     :      1.29s CPU      1.34s WALL (      11 calls)
     newd         :      1.96s CPU      2.01s WALL (      11 calls)
     mix_rho      :      0.18s CPU      0.20s WALL (      10 calls)

     Called by c_bands:
     init_us_2    :      3.53s CPU      3.59s WALL (     567 calls)
     cegterg      :    161.17s CPU    162.33s WALL (     270 calls)

     Called by *egterg:
     cdiaghg      :      2.64s CPU      2.66s WALL (    1382 calls)
     h_psi        :    115.40s CPU    116.41s WALL (    1409 calls)
     s_psi        :     22.56s CPU     22.65s WALL (    1409 calls)
     g_psi        :      0.34s CPU      0.34s WALL (    1112 calls)

     Called by h_psi:
     h_psi:calbec :     19.88s CPU     19.98s WALL (    1409 calls)
     vloc_psi     :     72.61s CPU     73.41s WALL (    1409 calls)
     add_vuspsi   :     22.57s CPU     22.67s WALL (    1409 calls)

     General routines
     calbec       :     25.08s CPU     25.21s WALL (    1679 calls)
     fft          :      1.60s CPU      2.49s WALL (     141 calls)
     ffts         :      0.44s CPU      0.93s WALL (      21 calls)
     fftw         :     72.31s CPU     73.04s WALL (   55106 calls)
     interpolate  :      0.48s CPU      0.98s WALL (      11 calls)

     Parallel routines

     PWSCF        :   3m31.91s CPU   3m35.84s WALL


   This run was terminated on:  11:16:29  12Aug2024            

=------------------------------------------------------------------------------=
   JOB DONE.
=------------------------------------------------------------------------------=
