
     Program PWSCF v.7.3.1 starts on  6Aug2024 at 14:42:28 

     This program is part of the open-source Quantum ESPRESSO suite
     for quantum simulation of materials; please cite
         "P. Giannozzi et al., J. Phys.:Condens. Matter 21 395502 (2009);
         "P. Giannozzi et al., J. Phys.:Condens. Matter 29 465901 (2017);
         "P. Giannozzi et al., J. Chem. Phys. 152 154105 (2020);
          URL http://www.quantum-espresso.org", 
     in publications or presentations arising from this work. More details at
     http://www.quantum-espresso.org/quote

     Parallel version (MPI), running on    24 processors

     MPI processes distributed on     1 nodes
     81894 MiB available memory on the printing compute node when the environment starts

     Waiting for input...
     Reading input from standard input

     Current dimensions of program PWSCF are:
     Max number of different atomic species (ntypx) = 10
     Max number of k-points (npk) =  40000
     Max angular momentum in pseudopotentials (lmaxx) =  4

     R & G space division:  proc/nbgrp/npool/nimage =      24
     Subspace diagonalization in iterative solution of the eigenvalue problem:
     a serial algorithm will be used


     Parallelization info
     --------------------
     sticks:   dense  smooth     PW     G-vecs:    dense   smooth      PW
     Min         471     234     64                25781     9113    1310
     Max         473     235     65                25783     9117    1313
     Sum       11315    5635   1551               618757   218753   31477

     Using Slab Decomposition


     Title: 
     volume variation                                                           


     bravais-lattice index     =            8
     lattice parameter (alat)  =      13.1633  a.u.
     unit-cell volume          =    1619.6113 (a.u.)^3
     number of atoms/cell      =           22
     number of atomic types    =            3
     number of electrons       =        48.00
     number of Kohn-Sham states=           24
     kinetic-energy cutoff     =     100.0000  Ry
     charge density cutoff     =     800.0000  Ry
     scf convergence threshold =      1.0E-10
     mixing beta               =       0.7000
     number of iterations used =            8  plain     mixing
     energy convergence thresh.=      1.0E-05
     force convergence thresh. =      1.0E-05
     press convergence thresh. =      5.0E-01
     Exchange-correlation= PBESOL
                           (   1   4  10   8   0   0   0)
     nstep                     =          300


     celldm(1)=  13.163273  celldm(2)=   1.025571  celldm(3)=   0.692394
     celldm(4)=   0.000000  celldm(5)=   0.000000  celldm(6)=   0.000000

     crystal axes: (cart. coord. in units of alat)
               a(1) = (   1.000000   0.000000   0.000000 )  
               a(2) = (   0.000000   1.025571   0.000000 )  
               a(3) = (   0.000000   0.000000   0.692394 )  

     reciprocal axes: (cart. coord. in units 2 pi/alat)
               b(1) = (  1.000000  0.000000  0.000000 )  
               b(2) = (  0.000000  0.975067  0.000000 )  
               b(3) = (  0.000000  0.000000  1.444264 )  


     PseudoPot. # 1 for B  read from file:
     /home/mehlhorn/pseudos/b_pbesol_v1.4.uspp.F.UPF
     MD5 check sum: 369b69bef2c3aeed4453bd8b804fd6a8
     Pseudo is Ultrasoft + core correction, Zval =  3.0
     Generated by new atomic code, or converted to UPF format
     Using radial grid of  781 points,  4 beta functions with: 
                l(1) =   0
                l(2) =   0
                l(3) =   1
                l(4) =   1
     Q(r) pseudized with  8 coefficients,  rinner =    1.100   1.100   1.100


     PseudoPot. # 2 for Ba read from file:
     /home/mehlhorn/pseudos/Ba.nc.z_10.oncvpsp4.dojo.v4-sp.upf
     MD5 check sum: c10ed334bb677c0554edec7181ce9143
     Pseudo is Norm-conserving + core correction, Zval = 10.0
     Generated using ONCVPSP code by D. R. Hamann
     Using radial grid of 1938 points,  8 beta functions with: 
                l(1) =   0
                l(2) =   0
                l(3) =   1
                l(4) =   1
                l(5) =   2
                l(6) =   2
                l(7) =   3
                l(8) =   3

     PseudoPot. # 3 for H  read from file:
     /home/mehlhorn/pseudos/H_ONCV_PBEsol-1.0.upf
     MD5 check sum: 398ef8f67c0a7342c05c87c5e19ea467
     Pseudo is Norm-conserving, Zval =  1.0
     Generated using ONCVPSP code by D. R. Hamann
     Using radial grid of 1180 points,  2 beta functions with: 
                l(1) =   0
                l(2) =   0

     atomic species   valence    mass     pseudopotential
     B                 3.00    10.81100     B ( 1.00)
     Ba               10.00   137.32700     Ba( 1.00)
     H                 1.00     1.00794     H ( 1.00)

      4 Sym. Ops. (no inversion) found ( 2 have fractional translation)



   Cartesian axes

     site n.     atom                  positions (alat units)
         1        Ba     tau(   1) = (   0.5000000   0.5127855   0.3462657  )
         2        Ba     tau(   2) = (   0.0000000   0.0000000   0.6923255  )
         3        B      tau(   3) = (   0.6102570   0.2453190   0.0000455  )
         4        B      tau(   4) = (   0.3897430   0.7802519   0.0000455  )
         5        B      tau(   5) = (   0.1102570   0.2674665   0.3461516  )
         6        B      tau(   6) = (   0.8897430   0.7581045   0.3461516  )
         7        H      tau(   7) = (   0.4340973   0.2996264   0.0001599  )
         8        H      tau(   8) = (   0.5659027   0.7259445   0.0001599  )
         9        H      tau(   9) = (   0.9340973   0.2131590   0.3460372  )
        10        H      tau(  10) = (   0.0659027   0.8124119   0.3460372  )
        11        H      tau(  11) = (   0.7220603   0.3933629  -0.0000058  )
        12        H      tau(  12) = (   0.2779397   0.6322081  -0.0000058  )
        13        H      tau(  13) = (   0.2220603   0.1194226   0.3462029  )
        14        H      tau(  14) = (   0.7779397   0.9061483   0.3462029  )
        15        H      tau(  15) = (   0.6392499   0.1457279   0.5404125  )
        16        H      tau(  16) = (   0.3607501   0.8798430   0.5404125  )
        17        H      tau(  17) = (   0.1392499   0.3670576   0.4981787  )
        18        H      tau(  18) = (   0.8607501   0.6585133   0.4981787  )
        19        H      tau(  19) = (   0.3605328   0.8798946   0.1519977  )
        20        H      tau(  20) = (   0.6394672   0.1456763   0.1519977  )
        21        H      tau(  21) = (   0.8605328   0.6584617   0.1941994  )
        22        H      tau(  22) = (   0.1394672   0.3671092   0.1941994  )

     number of k points=    27
                       cart. coord. in units 2pi/alat
        k(    1) = (   0.0000000   0.0000000   0.0000000), wk =   0.0312500
        k(    2) = (   0.0000000   0.0000000   0.3610660), wk =   0.0625000
        k(    3) = (   0.0000000   0.0000000  -0.7221320), wk =   0.0312500
        k(    4) = (   0.0000000   0.2437667   0.0000000), wk =   0.0625000
        k(    5) = (   0.0000000   0.2437667   0.3610660), wk =   0.1250000
        k(    6) = (   0.0000000   0.2437667  -0.7221320), wk =   0.0625000
        k(    7) = (   0.0000000  -0.4875333   0.0000000), wk =   0.0312500
        k(    8) = (   0.0000000  -0.4875333   0.3610660), wk =   0.0625000
        k(    9) = (   0.0000000  -0.4875333  -0.7221320), wk =   0.0312500
        k(   10) = (   0.2500000   0.0000000   0.0000000), wk =   0.0625000
        k(   11) = (   0.2500000   0.0000000   0.3610660), wk =   0.1250000
        k(   12) = (   0.2500000   0.0000000  -0.7221320), wk =   0.0625000
        k(   13) = (   0.2500000   0.2437667   0.0000000), wk =   0.1250000
        k(   14) = (   0.2500000   0.2437667   0.3610660), wk =   0.2500000
        k(   15) = (   0.2500000   0.2437667  -0.7221320), wk =   0.1250000
        k(   16) = (   0.2500000  -0.4875333   0.0000000), wk =   0.0625000
        k(   17) = (   0.2500000  -0.4875333   0.3610660), wk =   0.1250000
        k(   18) = (   0.2500000  -0.4875333  -0.7221320), wk =   0.0625000
        k(   19) = (  -0.5000000   0.0000000   0.0000000), wk =   0.0312500
        k(   20) = (  -0.5000000   0.0000000   0.3610660), wk =   0.0625000
        k(   21) = (  -0.5000000   0.0000000  -0.7221320), wk =   0.0312500
        k(   22) = (  -0.5000000   0.2437667   0.0000000), wk =   0.0625000
        k(   23) = (  -0.5000000   0.2437667   0.3610660), wk =   0.1250000
        k(   24) = (  -0.5000000   0.2437667  -0.7221320), wk =   0.0625000
        k(   25) = (  -0.5000000  -0.4875333   0.0000000), wk =   0.0312500
        k(   26) = (  -0.5000000  -0.4875333   0.3610660), wk =   0.0625000
        k(   27) = (  -0.5000000  -0.4875333  -0.7221320), wk =   0.0312500

     Dense  grid:   618757 G-vectors     FFT dimensions: ( 120, 128,  90)

     Smooth grid:   218753 G-vectors     FFT dimensions: (  90,  90,  60)

     Estimated max dynamical RAM per process >      98.37 MB

     Estimated total dynamical RAM >       2.31 GB

     Initial potential from superposition of free atoms

     starting charge      47.9682, renormalised to      48.0000
     Starting wfcs are   42 randomized atomic wfcs

     total cpu time spent up to now is       13.7 secs

     Self-consistent Calculation

     iteration #  1     ecut=   100.00 Ry     beta= 0.70
     Davidson diagonalization with overlap
     ethr =  1.00E-02,  avg # of iterations =  2.0

     total cpu time spent up to now is       32.2 secs

     total energy              =    -155.95496861 Ry
     estimated scf accuracy    <       1.81789953 Ry

     iteration #  2     ecut=   100.00 Ry     beta= 0.70
     Davidson diagonalization with overlap
     ethr =  3.79E-03,  avg # of iterations =  2.0

     total cpu time spent up to now is       50.6 secs

     total energy              =    -156.36693624 Ry
     estimated scf accuracy    <       0.35514028 Ry

     iteration #  3     ecut=   100.00 Ry     beta= 0.70
     Davidson diagonalization with overlap
     ethr =  7.40E-04,  avg # of iterations =  2.0

     total cpu time spent up to now is       69.0 secs

     total energy              =    -156.42688431 Ry
     estimated scf accuracy    <       0.00444996 Ry

     iteration #  4     ecut=   100.00 Ry     beta= 0.70
     Davidson diagonalization with overlap
     ethr =  9.27E-06,  avg # of iterations =  5.2

     total cpu time spent up to now is       95.7 secs

     total energy              =    -156.42947530 Ry
     estimated scf accuracy    <       0.00190558 Ry

     iteration #  5     ecut=   100.00 Ry     beta= 0.70
     Davidson diagonalization with overlap
     ethr =  3.97E-06,  avg # of iterations =  2.9

     total cpu time spent up to now is      114.6 secs

     total energy              =    -156.43011613 Ry
     estimated scf accuracy    <       0.00020240 Ry

     iteration #  6     ecut=   100.00 Ry     beta= 0.70
     Davidson diagonalization with overlap
     ethr =  4.22E-07,  avg # of iterations =  4.0

     total cpu time spent up to now is      135.3 secs

     total energy              =    -156.43018459 Ry
     estimated scf accuracy    <       0.00000181 Ry

     iteration #  7     ecut=   100.00 Ry     beta= 0.70
     Davidson diagonalization with overlap
     ethr =  3.78E-09,  avg # of iterations =  9.1

     total cpu time spent up to now is      178.8 secs

     total energy              =    -156.43019855 Ry
     estimated scf accuracy    <       0.00000153 Ry

     iteration #  8     ecut=   100.00 Ry     beta= 0.70
     Davidson diagonalization with overlap
     ethr =  3.18E-09,  avg # of iterations =  2.0

     total cpu time spent up to now is      197.1 secs

     total energy              =    -156.43019880 Ry
     estimated scf accuracy    <       0.00000004 Ry

     iteration #  9     ecut=   100.00 Ry     beta= 0.70
     Davidson diagonalization with overlap
     ethr =  7.30E-11,  avg # of iterations =  5.7

     total cpu time spent up to now is      223.5 secs

     total energy              =    -156.43019883 Ry
     estimated scf accuracy    <          2.9E-09 Ry

     iteration # 10     ecut=   100.00 Ry     beta= 0.70
     Davidson diagonalization with overlap
     ethr =  6.03E-12,  avg # of iterations =  4.7

     total cpu time spent up to now is      245.9 secs

     total energy              =    -156.43019884 Ry
     estimated scf accuracy    <          1.0E-10 Ry

     iteration # 11     ecut=   100.00 Ry     beta= 0.70
     Davidson diagonalization with overlap
     ethr =  2.14E-13,  avg # of iterations =  7.0

     total cpu time spent up to now is      280.7 secs

     End of self-consistent calculation

          k = 0.0000 0.0000 0.0000 ( 27383 PWs)   bands (ev):

   -25.0104 -25.0060 -10.3477 -10.3008 -10.1880 -10.1681 -10.1310 -10.0943
    -6.3070  -5.4530  -5.0370  -4.8594  -2.0992  -1.3113  -1.2271  -0.8649
    -0.5738  -0.5737  -0.5465  -0.3898  -0.2628   0.0973   0.1362   0.1734

          k = 0.0000 0.0000 0.3611 ( 27331 PWs)   bands (ev):

   -25.0063 -25.0032 -10.2917 -10.2804 -10.2618 -10.2613 -10.1788 -10.1683
    -5.9393  -5.2957  -5.1283  -5.0057  -1.8034  -1.5640  -1.1077  -1.0312
    -0.9373  -0.8486  -0.5243  -0.2761  -0.0662  -0.0494   0.0003   0.1458

          k = 0.0000 0.0000-0.7221 ( 27266 PWs)   bands (ev):

   -25.0012 -25.0012 -10.4152 -10.4151 -10.2054 -10.2054 -10.1910 -10.1910
    -5.3575  -5.3569  -5.1891  -5.1886  -1.5594  -1.5591  -1.5367  -1.5353
    -0.5906  -0.5893  -0.5322  -0.5310  -0.0549  -0.0547  -0.0168  -0.0163

          k = 0.0000 0.2438 0.0000 ( 27385 PWs)   bands (ev):

   -25.0098 -25.0067 -10.3295 -10.2838 -10.2144 -10.1872 -10.1255 -10.0995
    -6.1545  -5.3956  -5.2517  -4.9512  -1.8033  -1.4594  -1.3186  -0.6641
    -0.6376  -0.6018  -0.3612  -0.2715  -0.1869  -0.1712   0.0255   0.1096

          k = 0.0000 0.2438 0.3611 ( 27346 PWs)   bands (ev):

   -25.0058 -25.0036 -10.3105 -10.2814 -10.2466 -10.2460 -10.1809 -10.1797
    -5.8433  -5.3487  -5.1771  -5.0467  -1.6318  -1.5879  -1.3469  -0.8754
    -0.8313  -0.6361  -0.6350  -0.2355  -0.1274  -0.1163  -0.0102   0.0483

          k = 0.0000 0.2438-0.7221 ( 27276 PWs)   bands (ev):

   -25.0012 -25.0012 -10.4238 -10.4237 -10.1957 -10.1957 -10.1904 -10.1904
    -5.4948  -5.4946  -5.0493  -5.0492  -1.6358  -1.6352  -1.4155  -1.4149
    -0.5269  -0.5252  -0.5000  -0.5000  -0.1832  -0.1831  -0.0230  -0.0226

          k = 0.0000-0.4875 0.0000 ( 27398 PWs)   bands (ev):

   -25.0082 -25.0082 -10.2825 -10.2825 -10.2301 -10.2301 -10.1124 -10.1124
    -5.7593  -5.7593  -5.1603  -5.1603  -1.5609  -1.5609  -0.9149  -0.9149
    -0.7107  -0.7107  -0.2509  -0.2509  -0.1631  -0.1631  -0.0200  -0.0200

          k = 0.0000-0.4875 0.3611 ( 27360 PWs)   bands (ev):

   -25.0047 -25.0047 -10.3066 -10.3066 -10.2237 -10.2237 -10.1937 -10.1937
    -5.5987  -5.5987  -5.1315  -5.1315  -1.5678  -1.5678  -1.1610  -1.1610
    -0.6279  -0.6279  -0.3679  -0.3679  -0.2076  -0.2076  -0.0228  -0.0228

          k = 0.0000-0.4875-0.7221 ( 27296 PWs)   bands (ev):

   -25.0012 -25.0012 -10.4317 -10.4317 -10.1921 -10.1921 -10.1845 -10.1845
    -5.5746  -5.5746  -4.9672  -4.9672  -1.7072  -1.7072  -1.2387  -1.2387
    -0.5459  -0.5459  -0.4481  -0.4481  -0.3454  -0.3454   0.0108   0.0108

          k = 0.2500 0.0000 0.0000 ( 27376 PWs)   bands (ev):

   -25.0098 -25.0067 -10.3253 -10.2886 -10.2111 -10.1940 -10.1255 -10.0995
    -6.1605  -5.5208  -5.0490  -4.9700  -1.9329  -1.2055  -1.1516  -0.9890
    -0.5694  -0.4934  -0.4418  -0.3727  -0.2908  -0.2688   0.0786   0.1268

          k = 0.2500 0.0000 0.3611 ( 27353 PWs)   bands (ev):

   -25.0058 -25.0036 -10.3031 -10.2897 -10.2650 -10.2304 -10.1911 -10.1712
    -5.8185  -5.3152  -5.1420  -5.1039  -1.7717  -1.5279  -1.3811  -0.9288
    -0.8602  -0.6742  -0.4395  -0.3157  -0.2202  -0.0830   0.0898   0.0983

          k = 0.2500 0.0000-0.7221 ( 27332 PWs)   bands (ev):

   -25.0012 -25.0012 -10.4259 -10.4259 -10.1996 -10.1996 -10.1877 -10.1876
    -5.3403  -5.3399  -5.1863  -5.1860  -1.9590  -1.9586  -1.1876  -1.1872
    -0.5723  -0.5721  -0.3382  -0.3367  -0.2012  -0.2010   0.0199   0.0202

          k = 0.2500 0.2438 0.0000 ( 27367 PWs)   bands (ev):

   -25.0093 -25.0071 -10.3404 -10.2741 -10.2380 -10.1713 -10.1216 -10.1032
    -6.0388  -5.4908  -5.2213  -5.0223  -1.6872  -1.4036  -1.1637  -0.7458
    -0.6838  -0.6437  -0.3765  -0.2635  -0.2225  -0.1818  -0.0783   0.0412

          k = 0.2500 0.2438 0.3611 ( 27345 PWs)   bands (ev):

   -25.0055 -25.0039 -10.3022 -10.2864 -10.2805 -10.2216 -10.1928 -10.1695
    -5.7364  -5.3149  -5.2439  -5.1159  -1.7270  -1.4866  -1.4216  -0.9250
    -0.7393  -0.6045  -0.4939  -0.3131  -0.2171  -0.1122   0.0106   0.0828

          k = 0.2500 0.2438-0.7221 ( 27326 PWs)   bands (ev):

   -25.0012 -25.0012 -10.4305 -10.4170 -10.2086 -10.1938 -10.1891 -10.1878
    -5.4844  -5.3841  -5.1398  -5.0389  -1.9350  -1.8831  -1.2303  -1.1900
    -0.6074  -0.6004  -0.3584  -0.3295  -0.1526  -0.1517  -0.0331   0.0180

          k = 0.2500-0.4875 0.0000 ( 27380 PWs)   bands (ev):

   -25.0082 -25.0082 -10.3245 -10.3245 -10.1898 -10.1898 -10.1122 -10.1122
    -5.7267  -5.7267  -5.1936  -5.1936  -1.4570  -1.4570  -0.9308  -0.9308
    -0.7359  -0.7359  -0.3092  -0.3092  -0.1391  -0.1391  -0.0829  -0.0829

          k = 0.2500-0.4875 0.3611 ( 27330 PWs)   bands (ev):

   -25.0047 -25.0047 -10.3022 -10.3022 -10.2496 -10.2496 -10.1760 -10.1760
    -5.5274  -5.5274  -5.1935  -5.1935  -1.6327  -1.6327  -1.1362  -1.1362
    -0.6133  -0.6133  -0.3334  -0.3334  -0.2139  -0.2139  -0.0109  -0.0109

          k = 0.2500-0.4875-0.7221 ( 27300 PWs)   bands (ev):

   -25.0012 -25.0012 -10.4222 -10.4222 -10.1999 -10.1999 -10.1917 -10.1917
    -5.5027  -5.5027  -5.0181  -5.0181  -1.8468  -1.8468  -1.2767  -1.2767
    -0.5145  -0.5145  -0.4034  -0.4034  -0.1812  -0.1812   0.0047   0.0047

          k =-0.5000 0.0000 0.0000 ( 27342 PWs)   bands (ev):

   -25.0082 -25.0082 -10.2740 -10.2740 -10.2426 -10.2426 -10.1124 -10.1124
    -5.8118  -5.8118  -5.0580  -5.0580  -1.5604  -1.5604  -0.8418  -0.8418
    -0.5246  -0.5246  -0.4762  -0.4762  -0.3845  -0.3845  -0.0025  -0.0025

          k =-0.5000 0.0000 0.3611 ( 27384 PWs)   bands (ev):

   -25.0047 -25.0047 -10.3069 -10.3069 -10.2351 -10.2351 -10.1874 -10.1874
    -5.5305  -5.5305  -5.1644  -5.1644  -1.6822  -1.6822  -1.1806  -1.1806
    -0.6199  -0.6199  -0.4508  -0.4508  -0.1195  -0.1195   0.0711   0.0711

          k =-0.5000 0.0000-0.7221 ( 27380 PWs)   bands (ev):

   -25.0012 -25.0012 -10.4359 -10.4359 -10.1964 -10.1964 -10.1824 -10.1824
    -5.3274  -5.3274  -5.1781  -5.1781  -2.1437  -2.1437  -0.9760  -0.9760
    -0.5893  -0.5893  -0.4200  -0.4200  -0.0562  -0.0562   0.0055   0.0055

          k =-0.5000 0.2438 0.0000 ( 27326 PWs)   bands (ev):

   -25.0082 -25.0082 -10.3239 -10.3239 -10.1925 -10.1925 -10.1122 -10.1122
    -5.7591  -5.7591  -5.1365  -5.1365  -1.4617  -1.4617  -0.8499  -0.8499
    -0.6782  -0.6782  -0.5054  -0.5054  -0.2146  -0.2146  -0.0284  -0.0284

          k =-0.5000 0.2438 0.3611 ( 27356 PWs)   bands (ev):

   -25.0047 -25.0047 -10.3024 -10.3024 -10.2529 -10.2529 -10.1750 -10.1750
    -5.4835  -5.4835  -5.2197  -5.2197  -1.6814  -1.6814  -1.1681  -1.1681
    -0.5838  -0.5838  -0.4045  -0.4045  -0.1278  -0.1278   0.0105   0.0105

          k =-0.5000 0.2438-0.7221 ( 27344 PWs)   bands (ev):

   -25.0012 -25.0012 -10.4244 -10.4244 -10.2015 -10.2015 -10.1910 -10.1910
    -5.3752  -5.3752  -5.1272  -5.1272  -2.0667  -2.0667  -1.1404  -1.1404
    -0.5470  -0.5470  -0.3721  -0.3721  -0.0812  -0.0812   0.0390   0.0390

          k =-0.5000-0.4875 0.0000 ( 27376 PWs)   bands (ev):

   -25.0082 -25.0082 -10.3496 -10.3496 -10.1664 -10.1664 -10.1121 -10.1121
    -5.6907  -5.6907  -5.2299  -5.2299  -1.3129  -1.3129  -0.9958  -0.9958
    -0.7593  -0.7593  -0.3171  -0.3171  -0.1880  -0.1880  -0.1170  -0.1170

          k =-0.5000-0.4875 0.3611 ( 27324 PWs)   bands (ev):

   -25.0047 -25.0047 -10.2958 -10.2958 -10.2687 -10.2687 -10.1668 -10.1668
    -5.3953  -5.3953  -5.3161  -5.3161  -1.6611  -1.6611  -1.2179  -1.2179
    -0.4522  -0.4522  -0.3119  -0.3119  -0.1829  -0.1829  -0.1034  -0.1034

          k =-0.5000-0.4875-0.7221 ( 27312 PWs)   bands (ev):

   -25.0012 -25.0012 -10.4116 -10.4116 -10.2123 -10.2123 -10.1953 -10.1953
    -5.4088  -5.4088  -5.0906  -5.0906  -1.9432  -1.9432  -1.3795  -1.3795
    -0.3624  -0.3624  -0.3126  -0.3126  -0.1720  -0.1720   0.0085   0.0085

     highest occupied level (ev):     0.1734

!    total energy              =    -156.43019884 Ry
     estimated scf accuracy    <          1.5E-11 Ry

     The total energy is the sum of the following terms:
     one-electron contribution =     -28.23706160 Ry
     hartree contribution      =      26.86923641 Ry
     xc contribution           =     -48.52034258 Ry
     ewald contribution        =    -106.54203107 Ry

     convergence has been achieved in  11 iterations

     Forces acting on atoms (cartesian axes, Ry/au):

     atom    1 type  2   force =     0.00000000    0.00000000    0.00000679
     atom    2 type  2   force =     0.00000000    0.00000000   -0.00000679
     atom    3 type  1   force =     0.00063157    0.00331122   -0.00001714
     atom    4 type  1   force =    -0.00063157   -0.00331122   -0.00001714
     atom    5 type  1   force =     0.00063157   -0.00331122    0.00001714
     atom    6 type  1   force =    -0.00063157    0.00331122    0.00001714
     atom    7 type  3   force =     0.03092791   -0.00791848   -0.00002582
     atom    8 type  3   force =    -0.03092791    0.00791848   -0.00002582
     atom    9 type  3   force =     0.03092791    0.00791848    0.00002582
     atom   10 type  3   force =    -0.03092791   -0.00791848    0.00002582
     atom   11 type  3   force =    -0.02041779   -0.02479659    0.00001082
     atom   12 type  3   force =     0.02041779    0.02479659    0.00001082
     atom   13 type  3   force =    -0.02041779    0.02479659   -0.00001082
     atom   14 type  3   force =     0.02041779   -0.02479659   -0.00001082
     atom   15 type  3   force =    -0.00388322    0.01819966    0.02763172
     atom   16 type  3   force =     0.00388322   -0.01819966    0.02763172
     atom   17 type  3   force =    -0.00388322   -0.01819966   -0.02763172
     atom   18 type  3   force =     0.00388322    0.01819966   -0.02763172
     atom   19 type  3   force =     0.00395390   -0.01822032   -0.02763194
     atom   20 type  3   force =    -0.00395390    0.01822032   -0.02763194
     atom   21 type  3   force =     0.00395390    0.01822032    0.02763194
     atom   22 type  3   force =    -0.00395390   -0.01822032    0.02763194

     Total force =     0.130894     Total SCF correction =     0.000002


     Computing stress (Cartesian axis) and pressure

          total   stress  (Ry/bohr**3)                   (kbar)     P=      -62.21
  -0.00039472   0.00000000   0.00000000          -58.07        0.00        0.00
   0.00000000  -0.00040205   0.00000000            0.00      -59.14        0.00
   0.00000000   0.00000000  -0.00047195            0.00        0.00      -69.43

     Volume is kept fixed: isostatic pressure set to zero

     BFGS Geometry Optimization
     Energy error            =      0.0E+00 Ry
     Gradient error          =      3.1E-02 Ry/Bohr
     Cell gradient error     =      7.2E+00 kbar

     number of scf cycles    =   1
     number of bfgs steps    =   0

     enthalpy           new  =    -156.4301988357 Ry

     new trust radius        =       0.0333337314 bohr
ibrav =      8
 celldm(1) =     13.17255392
 celldm(2) =      1.02538312
 celldm(3) =      0.69105828
Input lattice vectors:
     1.00070504     0.00000000     0.00000000
     0.00000000     1.02610605     0.00000000
     0.00000000     0.00000000     0.69154550
New lattice vectors in INITIAL alat:
     1.00070504     0.00000000     0.00000000
     0.00000000     1.02610605     0.00000000
     0.00000000     0.00000000     0.69154550
New lattice vectors in NEW alat (for information only):
     1.00000000     0.00000000     0.00000000
     0.00000000     1.02538312     0.00000000
     0.00000000     0.00000000     0.69105828
Discrepancy in bohr =     0.000000    0.000000    0.000000
     new conv_thr            =            1.0E-10 Ry

     new unit-cell volume =   1619.61128 a.u.^3 (   240.00163 Ang^3 )
     density =      2.31107 g/cm^3

CELL_PARAMETERS (alat= 13.16327332)
   1.000705038   0.000000000   0.000000000
   0.000000000   1.026106050   0.000000000
   0.000000000   0.000000000   0.691545502

ATOMIC_POSITIONS (crystal)
Ba               0.5000000000        0.5000000000        0.5000999109
Ba               0.0000000000        0.0000000000        0.9999000891
B                0.6103049959        0.2394476578        0.0000637759
B                0.3896950041        0.7605523422        0.0000637759
B                0.1103049959        0.2605523422        0.4999362241
B                0.8896950041        0.7394476578        0.4999362241
H                0.4364468127        0.2915691689        0.0002281003
H                0.5635531873        0.7084308311        0.0002281003
H                0.9364468127        0.2084308311        0.4997718997
H                0.0635531873        0.7915691689        0.4997718997
H                0.7205091502        0.3817182070       -0.0000071843
H                0.2794908498        0.6182817930       -0.0000071843
H                0.2205091502        0.1182817930        0.5000071843
H                0.7794908498        0.8817182070        0.5000071843
H                0.6389549204        0.1434425311        0.7835301441
H                0.3610450796        0.8565574689        0.7835301441
H                0.1389549204        0.3565574689        0.7164698559
H                0.8610450796        0.6434425311        0.7164698559
H                0.3608332041        0.8566062482        0.2164930933
H                0.6391667959        0.1433937518        0.2164930933
H                0.8608332041        0.6433937518        0.2835069067
H                0.1391667959        0.3566062482        0.2835069067



     Writing config-only to output data dir ./pwscf.save/ :
     XML data file
     NEW-OLD atomic charge density approx. for the potential

     total cpu time spent up to now is      315.3 secs

     Self-consistent Calculation

     iteration #  1     ecut=   100.00 Ry     beta= 0.70
     Davidson diagonalization with overlap
     ethr =  1.00E-06,  avg # of iterations =  5.1

     total cpu time spent up to now is      345.8 secs

     total energy              =    -156.44332323 Ry
     estimated scf accuracy    <       0.00413918 Ry

     iteration #  2     ecut=   100.00 Ry     beta= 0.70
     Davidson diagonalization with overlap
     ethr =  8.62E-06,  avg # of iterations =  2.0

     total cpu time spent up to now is      364.1 secs

     total energy              =    -156.44459250 Ry
     estimated scf accuracy    <       0.00115825 Ry

     iteration #  3     ecut=   100.00 Ry     beta= 0.70
     Davidson diagonalization with overlap
     ethr =  2.41E-06,  avg # of iterations =  2.0

     total cpu time spent up to now is      382.5 secs

     total energy              =    -156.44474292 Ry
     estimated scf accuracy    <       0.00001673 Ry

     iteration #  4     ecut=   100.00 Ry     beta= 0.70
     Davidson diagonalization with overlap
     ethr =  3.49E-08,  avg # of iterations =  3.0

     total cpu time spent up to now is      403.8 secs

     total energy              =    -156.44475149 Ry
     estimated scf accuracy    <       0.00001113 Ry

     iteration #  5     ecut=   100.00 Ry     beta= 0.70
     Davidson diagonalization with overlap
     ethr =  2.32E-08,  avg # of iterations =  2.0

     total cpu time spent up to now is      422.1 secs

     total energy              =    -156.44475201 Ry
     estimated scf accuracy    <       0.00000092 Ry

     iteration #  6     ecut=   100.00 Ry     beta= 0.70
     Davidson diagonalization with overlap
     ethr =  1.92E-09,  avg # of iterations =  2.5

     total cpu time spent up to now is      440.6 secs

     total energy              =    -156.44475239 Ry
     estimated scf accuracy    <       0.00000023 Ry

     iteration #  7     ecut=   100.00 Ry     beta= 0.70
     Davidson diagonalization with overlap
     ethr =  4.80E-10,  avg # of iterations =  2.0

     total cpu time spent up to now is      458.9 secs

     total energy              =    -156.44475242 Ry
     estimated scf accuracy    <          6.8E-09 Ry

     iteration #  8     ecut=   100.00 Ry     beta= 0.70
     Davidson diagonalization with overlap
     ethr =  1.41E-11,  avg # of iterations =  5.2

     total cpu time spent up to now is      485.1 secs

     total energy              =    -156.44475243 Ry
     estimated scf accuracy    <          1.6E-10 Ry

     iteration #  9     ecut=   100.00 Ry     beta= 0.70
     Davidson diagonalization with overlap
     ethr =  3.26E-13,  avg # of iterations =  6.1

     total cpu time spent up to now is      515.8 secs

     End of self-consistent calculation

          k = 0.0000 0.0000 0.0000 ( 27383 PWs)   bands (ev):

   -25.0392 -25.0348 -10.3758 -10.3284 -10.2150 -10.1950 -10.1571 -10.1208
    -6.3646  -5.5424  -5.1231  -4.9506  -2.0986  -1.3266  -1.2606  -0.9166
    -0.6046  -0.5932  -0.5903  -0.4324  -0.3010   0.0378   0.0761   0.1093

          k = 0.0000 0.0000 0.3615 ( 27331 PWs)   bands (ev):

   -25.0350 -25.0318 -10.3191 -10.3083 -10.2901 -10.2884 -10.2055 -10.1952
    -6.0006  -5.3827  -5.2173  -5.0987  -1.7990  -1.5703  -1.1153  -1.0666
    -0.9694  -0.8828  -0.5679  -0.3272  -0.1214  -0.1050  -0.0533   0.0849

          k = 0.0000 0.0000-0.7230 ( 27266 PWs)   bands (ev):

   -25.0298 -25.0298 -10.4447 -10.4446 -10.2319 -10.2318 -10.2178 -10.2178
    -5.4329  -5.4324  -5.2821  -5.2817  -1.5616  -1.5612  -1.5364  -1.5350
    -0.6363  -0.6352  -0.5765  -0.5754  -0.1089  -0.1087  -0.0757  -0.0751

          k = 0.0000 0.2436 0.0000 ( 27385 PWs)   bands (ev):

   -25.0385 -25.0354 -10.3576 -10.3116 -10.2412 -10.2141 -10.1517 -10.1260
    -6.2144  -5.4844  -5.3307  -5.0421  -1.8118  -1.4743  -1.3436  -0.6973
    -0.6767  -0.6555  -0.3964  -0.3134  -0.2289  -0.2241  -0.0330   0.0508

          k = 0.0000 0.2436 0.3615 ( 27346 PWs)   bands (ev):

   -25.0345 -25.0323 -10.3380 -10.3094 -10.2739 -10.2739 -10.2078 -10.2064
    -5.9077  -5.4332  -5.2633  -5.1382  -1.6327  -1.5932  -1.3602  -0.9024
    -0.8655  -0.6834  -0.6716  -0.2867  -0.1813  -0.1718  -0.0647  -0.0086

          k = 0.0000 0.2436-0.7230 ( 27276 PWs)   bands (ev):

   -25.0298 -25.0298 -10.4532 -10.4531 -10.2222 -10.2222 -10.2173 -10.2172
    -5.5771  -5.5770  -5.1348  -5.1347  -1.6363  -1.6357  -1.4191  -1.4185
    -0.5718  -0.5703  -0.5470  -0.5468  -0.2349  -0.2348  -0.0815  -0.0812

          k = 0.0000-0.4873 0.0000 ( 27398 PWs)   bands (ev):

   -25.0369 -25.0369 -10.3107 -10.3107 -10.2567 -10.2567 -10.1387 -10.1387
    -5.8266  -5.8266  -5.2499  -5.2499  -1.5740  -1.5740  -0.9486  -0.9486
    -0.7457  -0.7457  -0.3090  -0.3090  -0.2064  -0.2064  -0.0711  -0.0711

          k = 0.0000-0.4873 0.3615 ( 27360 PWs)   bands (ev):

   -25.0334 -25.0334 -10.3343 -10.3343 -10.2516 -10.2516 -10.2203 -10.2203
    -5.6718  -5.6718  -5.2200  -5.2200  -1.5721  -1.5721  -1.1808  -1.1808
    -0.6695  -0.6695  -0.4117  -0.4117  -0.2643  -0.2643  -0.0773  -0.0773

          k = 0.0000-0.4873-0.7230 ( 27296 PWs)   bands (ev):

   -25.0298 -25.0298 -10.4610 -10.4610 -10.2189 -10.2189 -10.2110 -10.2110
    -5.6582  -5.6582  -5.0508  -5.0508  -1.7073  -1.7073  -1.2436  -1.2436
    -0.5955  -0.5955  -0.4895  -0.4895  -0.3979  -0.3979  -0.0488  -0.0488

          k = 0.2498 0.0000 0.0000 ( 27376 PWs)   bands (ev):

   -25.0385 -25.0354 -10.3535 -10.3161 -10.2381 -10.2209 -10.1517 -10.1260
    -6.2209  -5.6042  -5.1363  -5.0594  -1.9349  -1.2257  -1.1766  -1.0280
    -0.6000  -0.5384  -0.4792  -0.4171  -0.3333  -0.3184   0.0187   0.0628

          k = 0.2498 0.0000 0.3615 ( 27353 PWs)   bands (ev):

   -25.0345 -25.0323 -10.3308 -10.3176 -10.2925 -10.2581 -10.2176 -10.1982
    -5.8827  -5.3987  -5.2315  -5.1949  -1.7650  -1.5422  -1.3843  -0.9612
    -0.8991  -0.7116  -0.4880  -0.3639  -0.2709  -0.1352   0.0290   0.0421

          k = 0.2498 0.0000-0.7230 ( 27332 PWs)   bands (ev):

   -25.0298 -25.0298 -10.4554 -10.4553 -10.2259 -10.2259 -10.2146 -10.2146
    -5.4234  -5.4230  -5.2724  -5.2722  -1.9523  -1.9519  -1.1989  -1.1985
    -0.6184  -0.6182  -0.3843  -0.3828  -0.2528  -0.2526  -0.0384  -0.0381

          k = 0.2498 0.2436 0.0000 ( 27367 PWs)   bands (ev):

   -25.0380 -25.0358 -10.3682 -10.3023 -10.2645 -10.1983 -10.1478 -10.1296
    -6.1019  -5.5737  -5.3031  -5.1099  -1.6986  -1.4235  -1.1898  -0.7824
    -0.7171  -0.6800  -0.4255  -0.3060  -0.2740  -0.2259  -0.1355  -0.0148

          k = 0.2498 0.2436 0.3615 ( 27345 PWs)   bands (ev):

   -25.0342 -25.0326 -10.3301 -10.3136 -10.3082 -10.2496 -10.2193 -10.1964
    -5.8035  -5.4000  -5.3271  -5.2059  -1.7248  -1.4914  -1.4371  -0.9570
    -0.7769  -0.6443  -0.5405  -0.3594  -0.2696  -0.1672  -0.0456   0.0266

          k = 0.2498 0.2436-0.7230 ( 27326 PWs)   bands (ev):

   -25.0298 -25.0298 -10.4600 -10.4464 -10.2351 -10.2204 -10.2161 -10.2142
    -5.5693  -5.4675  -5.2254  -5.1226  -1.9286  -1.8762  -1.2434  -1.2013
    -0.6525  -0.6450  -0.4025  -0.3776  -0.2065  -0.2059  -0.0881  -0.0423

          k = 0.2498-0.4873 0.0000 ( 27380 PWs)   bands (ev):

   -25.0369 -25.0369 -10.3522 -10.3522 -10.2168 -10.2168 -10.1386 -10.1386
    -5.7979  -5.7979  -5.2780  -5.2780  -1.4766  -1.4766  -0.9637  -0.9637
    -0.7697  -0.7697  -0.3574  -0.3574  -0.1838  -0.1838  -0.1378  -0.1378

          k = 0.2498-0.4873 0.3615 ( 27330 PWs)   bands (ev):

   -25.0334 -25.0334 -10.3297 -10.3297 -10.2772 -10.2772 -10.2028 -10.2028
    -5.6025  -5.6025  -5.2799  -5.2799  -1.6348  -1.6348  -1.1617  -1.1617
    -0.6524  -0.6524  -0.3806  -0.3806  -0.2671  -0.2671  -0.0659  -0.0659

          k = 0.2498-0.4873-0.7230 ( 27300 PWs)   bands (ev):

   -25.0298 -25.0298 -10.4515 -10.4515 -10.2264 -10.2264 -10.2184 -10.2184
    -5.5874  -5.5874  -5.1019  -5.1019  -1.8402  -1.8402  -1.2900  -1.2900
    -0.5612  -0.5612  -0.4471  -0.4471  -0.2359  -0.2359  -0.0531  -0.0531

          k =-0.4996 0.0000 0.0000 ( 27342 PWs)   bands (ev):

   -25.0369 -25.0369 -10.3025 -10.3025 -10.2689 -10.2689 -10.1387 -10.1387
    -5.8811  -5.8811  -5.1473  -5.1473  -1.5694  -1.5694  -0.8747  -0.8747
    -0.5563  -0.5563  -0.5265  -0.5265  -0.4302  -0.4302  -0.0630  -0.0630

          k =-0.4996 0.0000 0.3615 ( 27384 PWs)   bands (ev):

   -25.0334 -25.0334 -10.3348 -10.3348 -10.2626 -10.2626 -10.2141 -10.2141
    -5.6027  -5.6027  -5.2553  -5.2553  -1.6794  -1.6794  -1.2044  -1.2044
    -0.6632  -0.6632  -0.4971  -0.4971  -0.1706  -0.1706   0.0121   0.0121

          k =-0.4996 0.0000-0.7230 ( 27380 PWs)   bands (ev):

   -25.0298 -25.0298 -10.4653 -10.4653 -10.2228 -10.2228 -10.2093 -10.2093
    -5.4182  -5.4182  -5.2573  -5.2573  -2.1339  -2.1339  -0.9913  -0.9913
    -0.6350  -0.6350  -0.4678  -0.4678  -0.1067  -0.1067  -0.0542  -0.0542

          k =-0.4996 0.2436 0.0000 ( 27326 PWs)   bands (ev):

   -25.0369 -25.0369 -10.3515 -10.3515 -10.2195 -10.2195 -10.1386 -10.1386
    -5.8311  -5.8311  -5.2209  -5.2209  -1.4796  -1.4796  -0.8813  -0.8813
    -0.7117  -0.7117  -0.5516  -0.5516  -0.2591  -0.2591  -0.0869  -0.0869

          k =-0.4996 0.2436 0.3615 ( 27356 PWs)   bands (ev):

   -25.0334 -25.0334 -10.3300 -10.3300 -10.2805 -10.2805 -10.2019 -10.2019
    -5.5579  -5.5579  -5.3074  -5.3074  -1.6806  -1.6806  -1.1935  -1.1935
    -0.6266  -0.6266  -0.4510  -0.4510  -0.1798  -0.1798  -0.0454  -0.0454

          k =-0.4996 0.2436-0.7230 ( 27344 PWs)   bands (ev):

   -25.0298 -25.0298 -10.4539 -10.4539 -10.2278 -10.2278 -10.2179 -10.2179
    -5.4630  -5.4630  -5.2094  -5.2094  -2.0569  -2.0569  -1.1559  -1.1559
    -0.5920  -0.5920  -0.4214  -0.4214  -0.1333  -0.1333  -0.0192  -0.0192

          k =-0.4996-0.4873 0.0000 ( 27376 PWs)   bands (ev):

   -25.0369 -25.0369 -10.3771 -10.3771 -10.1935 -10.1935 -10.1384 -10.1384
    -5.7669  -5.7669  -5.3080  -5.3080  -1.3462  -1.3462  -1.0175  -1.0175
    -0.7919  -0.7919  -0.3650  -0.3650  -0.2399  -0.2399  -0.1629  -0.1629

          k =-0.4996-0.4873 0.3615 ( 27324 PWs)   bands (ev):

   -25.0334 -25.0334 -10.3228 -10.3228 -10.2968 -10.2968 -10.1936 -10.1936
    -5.4741  -5.4741  -5.3985  -5.3985  -1.6617  -1.6617  -1.2446  -1.2446
    -0.4944  -0.4944  -0.3652  -0.3652  -0.2339  -0.2339  -0.1522  -0.1522

          k =-0.4996-0.4873-0.7230 ( 27312 PWs)   bands (ev):

   -25.0298 -25.0298 -10.4411 -10.4411 -10.2387 -10.2387 -10.2219 -10.2219
    -5.4952  -5.4952  -5.1741  -5.1741  -1.9328  -1.9328  -1.3941  -1.3941
    -0.4123  -0.4123  -0.3663  -0.3663  -0.2209  -0.2209  -0.0461  -0.0461

     highest occupied level (ev):     0.1093

!    total energy              =    -156.44475243 Ry
     estimated scf accuracy    <          9.4E-11 Ry

     The total energy is the sum of the following terms:
     one-electron contribution =     -29.18114935 Ry
     hartree contribution      =      27.34354865 Ry
     xc contribution           =     -48.63797459 Ry
     ewald contribution        =    -105.96917713 Ry

     convergence has been achieved in   9 iterations

     Forces acting on atoms (cartesian axes, Ry/au):

     atom    1 type  2   force =     0.00000000    0.00000000    0.00000536
     atom    2 type  2   force =     0.00000000    0.00000000   -0.00000536
     atom    3 type  1   force =     0.00089718    0.00365738   -0.00001067
     atom    4 type  1   force =    -0.00089718   -0.00365738   -0.00001067
     atom    5 type  1   force =     0.00089718   -0.00365738    0.00001067
     atom    6 type  1   force =    -0.00089718    0.00365738    0.00001067
     atom    7 type  3   force =     0.02136948   -0.00508262   -0.00002000
     atom    8 type  3   force =    -0.02136948    0.00508262   -0.00002000
     atom    9 type  3   force =     0.02136948    0.00508262    0.00002000
     atom   10 type  3   force =    -0.02136948   -0.00508262    0.00002000
     atom   11 type  3   force =    -0.01416234   -0.01643983    0.00000700
     atom   12 type  3   force =     0.01416234    0.01643983    0.00000700
     atom   13 type  3   force =    -0.01416234    0.01643983   -0.00000700
     atom   14 type  3   force =     0.01416234   -0.01643983   -0.00000700
     atom   15 type  3   force =    -0.00228340    0.01257329    0.01846603
     atom   16 type  3   force =     0.00228340   -0.01257329    0.01846603
     atom   17 type  3   force =    -0.00228340   -0.01257329   -0.01846603
     atom   18 type  3   force =     0.00228340    0.01257329   -0.01846603
     atom   19 type  3   force =     0.00233954   -0.01259142   -0.01847319
     atom   20 type  3   force =    -0.00233954    0.01259142   -0.01847319
     atom   21 type  3   force =     0.00233954    0.01259142    0.01847319
     atom   22 type  3   force =    -0.00233954   -0.01259142    0.01847319

     Total force =     0.088929     Total SCF correction =     0.000004


     Computing stress (Cartesian axis) and pressure

          total   stress  (Ry/bohr**3)                   (kbar)     P=      -50.19
  -0.00031835   0.00000000   0.00000000          -46.83        0.00        0.00
   0.00000000  -0.00032410   0.00000000            0.00      -47.68        0.00
   0.00000000   0.00000000  -0.00038107            0.00        0.00      -56.06

     Volume is kept fixed: isostatic pressure set to zero
     Energy error            =      1.5E-02 Ry
     Gradient error          =      2.1E-02 Ry/Bohr
     Cell gradient error     =      5.9E+00 kbar

     number of scf cycles    =   2
     number of bfgs steps    =   1

     enthalpy           old  =    -156.4301988357 Ry
     enthalpy           new  =    -156.4447524274 Ry

     CASE: enthalpy          _new < enthalpy          _old

     new trust radius        =       0.0499667922 bohr
ibrav =      8
 celldm(1) =     13.18930019
 celldm(2) =      1.02505666
 celldm(3) =      0.68864859
Input lattice vectors:
     1.00197723     0.00000000     0.00000000
     0.00000000     1.02708344     0.00000000
     0.00000000     0.00000000     0.69001020
New lattice vectors in INITIAL alat:
     1.00197723     0.00000000     0.00000000
     0.00000000     1.02708344     0.00000000
     0.00000000     0.00000000     0.69001020
New lattice vectors in NEW alat (for information only):
     1.00000000     0.00000000     0.00000000
     0.00000000     1.02505666     0.00000000
     0.00000000     0.00000000     0.68864859
Discrepancy in bohr =     0.000000    0.000000    0.000000
     new conv_thr            =            1.0E-10 Ry

     new unit-cell volume =   1619.61128 a.u.^3 (   240.00163 Ang^3 )
     density =      2.31107 g/cm^3

CELL_PARAMETERS (alat= 13.16327332)
   1.001977234   0.000000000   0.000000000
   0.000000000   1.027083441   0.000000000
   0.000000000   0.000000000   0.690010205

ATOMIC_POSITIONS (crystal)
Ba               0.5000000000        0.5000000000        0.5001012168
Ba               0.0000000000        0.0000000000        0.9998987832
B                0.6104564762        0.2400500062        0.0000611728
B                0.3895435238        0.7599499938        0.0000611728
B                0.1104564762        0.2599499938        0.4999388272
B                0.8895435238        0.7400500062        0.4999388272
H                0.4400623886        0.2907305564        0.0002232243
H                0.5599376114        0.7092694436        0.0002232243
H                0.9400623886        0.2092694436        0.4997767757
H                0.0599376114        0.7907305564        0.4997767757
H                0.7181130127        0.3790060781       -0.0000054760
H                0.2818869873        0.6209939219       -0.0000054760
H                0.2181130127        0.1209939219        0.5000054760
H                0.7818869873        0.8790060781        0.5000054760
H                0.6385683095        0.1455164310        0.7880344528
H                0.3614316905        0.8544835690        0.7880344528
H                0.1385683095        0.3544835690        0.7119655472
H                0.8614316905        0.6455164310        0.7119655472
H                0.3612293081        0.8545293609        0.2119870460
H                0.6387706919        0.1454706391        0.2119870460
H                0.8612293081        0.6454706391        0.2880129540
H                0.1387706919        0.3545293609        0.2880129540



     Writing config-only to output data dir ./pwscf.save/ :
     XML data file
     NEW-OLD atomic charge density approx. for the potential

     total cpu time spent up to now is      550.6 secs

     Self-consistent Calculation

     iteration #  1     ecut=   100.00 Ry     beta= 0.70
     Davidson diagonalization with overlap
     ethr =  1.00E-06,  avg # of iterations =  6.0

     total cpu time spent up to now is      583.5 secs

     total energy              =    -156.45214534 Ry
     estimated scf accuracy    <       0.01024367 Ry

     iteration #  2     ecut=   100.00 Ry     beta= 0.70
     Davidson diagonalization with overlap
     ethr =  2.13E-05,  avg # of iterations =  2.0

     total cpu time spent up to now is      601.8 secs

     total energy              =    -156.45533580 Ry
     estimated scf accuracy    <       0.00290089 Ry

     iteration #  3     ecut=   100.00 Ry     beta= 0.70
     Davidson diagonalization with overlap
     ethr =  6.04E-06,  avg # of iterations =  2.0

     total cpu time spent up to now is      620.1 secs

     total energy              =    -156.45571737 Ry
     estimated scf accuracy    <       0.00004140 Ry

     iteration #  4     ecut=   100.00 Ry     beta= 0.70
     Davidson diagonalization with overlap
     ethr =  8.63E-08,  avg # of iterations =  3.0

     total cpu time spent up to now is      641.5 secs

     total energy              =    -156.45573760 Ry
     estimated scf accuracy    <       0.00002358 Ry

     iteration #  5     ecut=   100.00 Ry     beta= 0.70
     Davidson diagonalization with overlap
     ethr =  4.91E-08,  avg # of iterations =  2.0

     total cpu time spent up to now is      659.8 secs

     total energy              =    -156.45573909 Ry
     estimated scf accuracy    <       0.00000160 Ry

     iteration #  6     ecut=   100.00 Ry     beta= 0.70
     Davidson diagonalization with overlap
     ethr =  3.34E-09,  avg # of iterations =  2.7

     total cpu time spent up to now is      678.6 secs

     total energy              =    -156.45573978 Ry
     estimated scf accuracy    <       0.00000049 Ry

     iteration #  7     ecut=   100.00 Ry     beta= 0.70
     Davidson diagonalization with overlap
     ethr =  1.03E-09,  avg # of iterations =  2.0

     total cpu time spent up to now is      697.0 secs

     total energy              =    -156.45573985 Ry
     estimated scf accuracy    <          8.6E-09 Ry

     iteration #  8     ecut=   100.00 Ry     beta= 0.70
     Davidson diagonalization with overlap
     ethr =  1.79E-11,  avg # of iterations =  5.9

     total cpu time spent up to now is      726.6 secs

     total energy              =    -156.45573987 Ry
     estimated scf accuracy    <          3.3E-10 Ry

     iteration #  9     ecut=   100.00 Ry     beta= 0.70
     Davidson diagonalization with overlap
     ethr =  6.91E-13,  avg # of iterations =  5.1

     total cpu time spent up to now is      752.1 secs

     total energy              =    -156.45573987 Ry
     estimated scf accuracy    <          3.1E-10 Ry

     iteration # 10     ecut=   100.00 Ry     beta= 0.70
     Davidson diagonalization with overlap
     ethr =  6.41E-13,  avg # of iterations =  1.0

     total cpu time spent up to now is      766.5 secs

     total energy              =    -156.45573987 Ry
     estimated scf accuracy    <          2.8E-10 Ry

     iteration # 11     ecut=   100.00 Ry     beta= 0.70
     Davidson diagonalization with overlap
     ethr =  5.94E-13,  avg # of iterations =  4.0

     total cpu time spent up to now is      785.7 secs

     total energy              =    -156.45573987 Ry
     estimated scf accuracy    <          1.1E-10 Ry

     iteration # 12     ecut=   100.00 Ry     beta= 0.70
     Davidson diagonalization with overlap
     ethr =  2.28E-13,  avg # of iterations =  1.1

     total cpu time spent up to now is      800.2 secs

     End of self-consistent calculation

          k = 0.0000 0.0000 0.0000 ( 27383 PWs)   bands (ev):

   -25.0819 -25.0776 -10.4183 -10.3698 -10.2553 -10.2354 -10.1962 -10.1606
    -6.4551  -5.6796  -5.2556  -5.0915  -2.1032  -1.3530  -1.3148  -0.9963
    -0.6505  -0.6441  -0.6341  -0.4912  -0.3509  -0.0516  -0.0205   0.0069

          k = 0.0000 0.0000 0.3623 ( 27331 PWs)   bands (ev):

   -25.0776 -25.0746 -10.3601 -10.3509 -10.3332 -10.3291 -10.2453 -10.2354
    -6.0958  -5.5152  -5.3545  -5.2425  -1.7972  -1.5829  -1.1319  -1.1231
    -1.0170  -0.9298  -0.6307  -0.4020  -0.2067  -0.1942  -0.1328  -0.0099

          k = 0.0000 0.0000-0.7246 ( 27266 PWs)   bands (ev):

   -25.0724 -25.0724 -10.4902 -10.4901 -10.2711 -10.2711 -10.2579 -10.2579
    -5.5479  -5.5474  -5.4260  -5.4256  -1.5639  -1.5635  -1.5399  -1.5386
    -0.7060  -0.7051  -0.6469  -0.6457  -0.1889  -0.1887  -0.1669  -0.1664

          k = 0.0000 0.2434 0.0000 ( 27385 PWs)   bands (ev):

   -25.0813 -25.0782 -10.3999 -10.3534 -10.2813 -10.2544 -10.1909 -10.1657
    -6.3086  -5.6216  -5.4518  -5.1821  -1.8295  -1.5007  -1.3868  -0.7407
    -0.7382  -0.7294  -0.4592  -0.3701  -0.3100  -0.2849  -0.1213  -0.0440

          k = 0.0000 0.2434 0.3623 ( 27346 PWs)   bands (ev):

   -25.0772 -25.0750 -10.3797 -10.3519 -10.3159 -10.3148 -10.2479 -10.2464
    -6.0075  -5.5624  -5.3963  -5.2796  -1.6377  -1.6046  -1.3862  -0.9409
    -0.9146  -0.7545  -0.7261  -0.3623  -0.2657  -0.2572  -0.1467  -0.0981

          k = 0.0000 0.2434-0.7246 ( 27276 PWs)   bands (ev):

   -25.0724 -25.0724 -10.4985 -10.4984 -10.2616 -10.2616 -10.2572 -10.2572
    -5.7035  -5.7034  -5.2664  -5.2664  -1.6406  -1.6400  -1.4240  -1.4234
    -0.6410  -0.6400  -0.6195  -0.6189  -0.3117  -0.3116  -0.1731  -0.1728

          k = 0.0000-0.4868 0.0000 ( 27398 PWs)   bands (ev):

   -25.0797 -25.0797 -10.3533 -10.3533 -10.2963 -10.2963 -10.1782 -10.1782
    -5.9323  -5.9323  -5.3871  -5.3871  -1.5979  -1.5979  -1.0061  -1.0061
    -0.7921  -0.7921  -0.3982  -0.3982  -0.2647  -0.2647  -0.1547  -0.1547

          k = 0.0000-0.4868 0.3623 ( 27360 PWs)   bands (ev):

   -25.0761 -25.0761 -10.3762 -10.3762 -10.2935 -10.2935 -10.2599 -10.2599
    -5.7847  -5.7847  -5.3564  -5.3564  -1.5825  -1.5825  -1.2131  -1.2131
    -0.7302  -0.7302  -0.4757  -0.4757  -0.3527  -0.3527  -0.1618  -0.1618

          k = 0.0000-0.4868-0.7246 ( 27296 PWs)   bands (ev):

   -25.0724 -25.0724 -10.5061 -10.5061 -10.2588 -10.2588 -10.2505 -10.2505
    -5.7862  -5.7862  -5.1799  -5.1799  -1.7113  -1.7113  -1.2491  -1.2491
    -0.6726  -0.6726  -0.5533  -0.5533  -0.4754  -0.4754  -0.1426  -0.1426

          k = 0.2495 0.0000 0.0000 ( 27376 PWs)   bands (ev):

   -25.0813 -25.0782 -10.3958 -10.3577 -10.2784 -10.2611 -10.1908 -10.1657
    -6.3159  -5.7332  -5.2704  -5.1971  -1.9441  -1.2590  -1.2217  -1.0902
    -0.6388  -0.6001  -0.5301  -0.4889  -0.3953  -0.3894  -0.0766  -0.0395

          k = 0.2495 0.0000 0.3623 ( 27353 PWs)   bands (ev):

   -25.0772 -25.0750 -10.3728 -10.3598 -10.3340 -10.2998 -10.2571 -10.2385
    -5.9825  -5.5266  -5.3693  -5.3353  -1.7590  -1.5659  -1.3923  -1.0103
    -0.9609  -0.7647  -0.5598  -0.4391  -0.3445  -0.2143  -0.0662  -0.0452

          k = 0.2495 0.0000-0.7246 ( 27332 PWs)   bands (ev):

   -25.0724 -25.0724 -10.5008 -10.5007 -10.2650 -10.2650 -10.2549 -10.2548
    -5.5524  -5.5521  -5.4033  -5.4030  -1.9438  -1.9434  -1.2168  -1.2165
    -0.6918  -0.6916  -0.4542  -0.4527  -0.3310  -0.3308  -0.1278  -0.1275

          k = 0.2495 0.2434 0.0000 ( 27367 PWs)   bands (ev):

   -25.0808 -25.0787 -10.4100 -10.3449 -10.3040 -10.2387 -10.1870 -10.1693
    -6.2012  -5.7028  -5.4285  -5.2447  -1.7213  -1.4570  -1.2355  -0.8421
    -0.7610  -0.7281  -0.5029  -0.3632  -0.3560  -0.2851  -0.2269  -0.1038

          k = 0.2495 0.2434 0.3623 ( 27345 PWs)   bands (ev):

   -25.0769 -25.0753 -10.3723 -10.3544 -10.3504 -10.2917 -10.2589 -10.2365
    -5.9077  -5.5303  -5.4560  -5.3446  -1.7248  -1.5020  -1.4630  -1.0051
    -0.8358  -0.7013  -0.6097  -0.4301  -0.3503  -0.2504  -0.1309  -0.0610

          k = 0.2495 0.2434-0.7246 ( 27326 PWs)   bands (ev):

   -25.0724 -25.0724 -10.5055 -10.4917 -10.2743 -10.2602 -10.2563 -10.2536
    -5.6999  -5.5959  -5.3567  -5.2512  -1.9212  -1.8681  -1.2628  -1.2184
    -0.7240  -0.7170  -0.4666  -0.4490  -0.2940  -0.2864  -0.1690  -0.1385

          k = 0.2495-0.4868 0.0000 ( 27380 PWs)   bands (ev):

   -25.0797 -25.0797 -10.3938 -10.3938 -10.2573 -10.2573 -10.1780 -10.1780
    -5.9099  -5.9099  -5.4072  -5.4072  -1.5099  -1.5099  -1.0197  -1.0197
    -0.8142  -0.8142  -0.4342  -0.4342  -0.2442  -0.2442  -0.2247  -0.2247

          k = 0.2495-0.4868 0.3623 ( 27330 PWs)   bands (ev):

   -25.0761 -25.0761 -10.3712 -10.3712 -10.3190 -10.3190 -10.2429 -10.2429
    -5.7186  -5.7186  -5.4129  -5.4129  -1.6411  -1.6411  -1.2018  -1.2018
    -0.7100  -0.7100  -0.4519  -0.4519  -0.3496  -0.3496  -0.1496  -0.1496

          k = 0.2495-0.4868-0.7246 ( 27300 PWs)   bands (ev):

   -25.0724 -25.0724 -10.4969 -10.4969 -10.2658 -10.2658 -10.2581 -10.2581
    -5.7174  -5.7174  -5.2309  -5.2309  -1.8335  -1.8335  -1.3089  -1.3089
    -0.6331  -0.6331  -0.5148  -0.5148  -0.3183  -0.3183  -0.1432  -0.1432

          k =-0.4990 0.0000 0.0000 ( 27342 PWs)   bands (ev):

   -25.0797 -25.0797 -10.3454 -10.3454 -10.3081 -10.3081 -10.1782 -10.1782
    -5.9899  -5.9899  -5.2842  -5.2842  -1.5901  -1.5901  -0.9257  -0.9257
    -0.6060  -0.6060  -0.5976  -0.5976  -0.4923  -0.4923  -0.1603  -0.1603

          k =-0.4990 0.0000 0.3623 ( 27384 PWs)   bands (ev):

   -25.0761 -25.0761 -10.3769 -10.3769 -10.3038 -10.3038 -10.2542 -10.2542
    -5.7149  -5.7149  -5.3947  -5.3947  -1.6782  -1.6782  -1.2422  -1.2422
    -0.7296  -0.7296  -0.5663  -0.5663  -0.2454  -0.2454  -0.0805  -0.0805

          k =-0.4990 0.0000-0.7246 ( 27380 PWs)   bands (ev):

   -25.0724 -25.0724 -10.5106 -10.5106 -10.2619 -10.2619 -10.2494 -10.2494
    -5.5584  -5.5584  -5.3782  -5.3782  -2.1205  -2.1205  -1.0149  -1.0149
    -0.7080  -0.7080  -0.5396  -0.5396  -0.1816  -0.1816  -0.1483  -0.1483

          k =-0.4990 0.2434 0.0000 ( 27326 PWs)   bands (ev):

   -25.0797 -25.0797 -10.3931 -10.3931 -10.2600 -10.2600 -10.1780 -10.1780
    -5.9441  -5.9441  -5.3505  -5.3505  -1.5122  -1.5122  -0.9324  -0.9324
    -0.7557  -0.7557  -0.6251  -0.6251  -0.3192  -0.3192  -0.1802  -0.1802

          k =-0.4990 0.2434 0.3623 ( 27356 PWs)   bands (ev):

   -25.0761 -25.0761 -10.3717 -10.3717 -10.3221 -10.3221 -10.2420 -10.2420
    -5.6734  -5.6734  -5.4423  -5.4423  -1.6825  -1.6825  -1.2327  -1.2327
    -0.6939  -0.6939  -0.5191  -0.5191  -0.2569  -0.2569  -0.1327  -0.1327

          k =-0.4990 0.2434-0.7246 ( 27344 PWs)   bands (ev):

   -25.0724 -25.0724 -10.4993 -10.4993 -10.2668 -10.2668 -10.2580 -10.2580
    -5.5981  -5.5981  -5.3353  -5.3353  -2.0442  -2.0442  -1.1791  -1.1791
    -0.6645  -0.6645  -0.4940  -0.4940  -0.2153  -0.2153  -0.1074  -0.1074

          k =-0.4990-0.4868 0.0000 ( 27376 PWs)   bands (ev):

   -25.0797 -25.0797 -10.4185 -10.4185 -10.2341 -10.2341 -10.1779 -10.1779
    -5.8864  -5.8864  -5.4280  -5.4280  -1.3980  -1.3980  -1.0580  -1.0580
    -0.8347  -0.8347  -0.4449  -0.4449  -0.3196  -0.3196  -0.2251  -0.2251

          k =-0.4990-0.4868 0.3623 ( 27324 PWs)   bands (ev):

   -25.0761 -25.0761 -10.3632 -10.3632 -10.3397 -10.3397 -10.2338 -10.2338
    -5.5965  -5.5965  -5.5251  -5.5251  -1.6656  -1.6656  -1.2852  -1.2852
    -0.5573  -0.5573  -0.4479  -0.4479  -0.3145  -0.3145  -0.2237  -0.2237

          k =-0.4990-0.4868-0.7246 ( 27312 PWs)   bands (ev):

   -25.0724 -25.0724 -10.4867 -10.4867 -10.2779 -10.2779 -10.2617 -10.2617
    -5.6280  -5.6280  -5.3023  -5.3023  -1.9202  -1.9202  -1.4153  -1.4153
    -0.4855  -0.4855  -0.4496  -0.4496  -0.3021  -0.3021  -0.1268  -0.1268

     highest occupied level (ev):     0.0069

!    total energy              =    -156.45573987 Ry
     estimated scf accuracy    <          3.8E-11 Ry

     The total energy is the sum of the following terms:
     one-electron contribution =     -30.68629139 Ry
     hartree contribution      =      28.10177851 Ry
     xc contribution           =     -48.82158695 Ry
     ewald contribution        =    -105.04964004 Ry

     convergence has been achieved in  12 iterations

     Forces acting on atoms (cartesian axes, Ry/au):

     atom    1 type  2   force =     0.00000000    0.00000000    0.00000338
     atom    2 type  2   force =     0.00000000    0.00000000   -0.00000338
     atom    3 type  1   force =     0.00076080    0.00282945   -0.00000724
     atom    4 type  1   force =    -0.00076080   -0.00282945   -0.00000724
     atom    5 type  1   force =     0.00076080   -0.00282945    0.00000724
     atom    6 type  1   force =    -0.00076080    0.00282945    0.00000724
     atom    7 type  3   force =     0.00543866   -0.00032784   -0.00001046
     atom    8 type  3   force =    -0.00543866    0.00032784   -0.00001046
     atom    9 type  3   force =     0.00543866    0.00032784    0.00001046
     atom   10 type  3   force =    -0.00543866   -0.00032784    0.00001046
     atom   11 type  3   force =    -0.00312142   -0.00175272    0.00000107
     atom   12 type  3   force =     0.00312142    0.00175272    0.00000107
     atom   13 type  3   force =    -0.00312142    0.00175272   -0.00000107
     atom   14 type  3   force =     0.00312142   -0.00175272   -0.00000107
     atom   15 type  3   force =     0.00035706    0.00346321    0.00350435
     atom   16 type  3   force =    -0.00035706   -0.00346321    0.00350435
     atom   17 type  3   force =     0.00035706   -0.00346321   -0.00350435
     atom   18 type  3   force =    -0.00035706    0.00346321   -0.00350435
     atom   19 type  3   force =    -0.00032569   -0.00347339   -0.00351628
     atom   20 type  3   force =     0.00032569    0.00347339   -0.00351628
     atom   21 type  3   force =    -0.00032569    0.00347339    0.00351628
     atom   22 type  3   force =     0.00032569   -0.00347339    0.00351628

     Total force =     0.020002     Total SCF correction =     0.000002


     Computing stress (Cartesian axis) and pressure

          total   stress  (Ry/bohr**3)                   (kbar)     P=      -30.65
  -0.00019230   0.00000000   0.00000000          -28.29        0.00        0.00
   0.00000000  -0.00019580   0.00000000            0.00      -28.80        0.00
   0.00000000   0.00000000  -0.00023697            0.00        0.00      -34.86

     Volume is kept fixed: isostatic pressure set to zero
     Energy error            =      1.1E-02 Ry
     Gradient error          =      5.4E-03 Ry/Bohr
     Cell gradient error     =      4.2E+00 kbar

     number of scf cycles    =   3
     number of bfgs steps    =   2

     enthalpy           old  =    -156.4447524274 Ry
     enthalpy           new  =    -156.4557398701 Ry

     CASE: enthalpy          _new < enthalpy          _old

     new trust radius        =       0.0147475233 bohr
ibrav =      8
 celldm(1) =     13.19874527
 celldm(2) =      1.02489125
 celldm(3) =      0.68728215
Input lattice vectors:
     1.00269477     0.00000000     0.00000000
     0.00000000     1.02765309     0.00000000
     0.00000000     0.00000000     0.68913422
New lattice vectors in INITIAL alat:
     1.00269477     0.00000000     0.00000000
     0.00000000     1.02765309     0.00000000
     0.00000000     0.00000000     0.68913422
New lattice vectors in NEW alat (for information only):
     1.00000000     0.00000000     0.00000000
     0.00000000     1.02489125     0.00000000
     0.00000000     0.00000000     0.68728215
Discrepancy in bohr =     0.000000    0.000000    0.000000
     new conv_thr            =            1.0E-10 Ry

     new unit-cell volume =   1619.61128 a.u.^3 (   240.00163 Ang^3 )
     density =      2.31107 g/cm^3

CELL_PARAMETERS (alat= 13.16327332)
   1.002694767   0.000000000   0.000000000
   0.000000000   1.027653092   0.000000000
   0.000000000   0.000000000   0.689134216

ATOMIC_POSITIONS (crystal)
Ba               0.5000000000        0.5000000000        0.5001018965
Ba               0.0000000000        0.0000000000        0.9998981035
B                0.6105542133        0.2404130411        0.0000597444
B                0.3894457867        0.7595869589        0.0000597444
B                0.1105542133        0.2595869589        0.4999402556
B                0.8894457867        0.7404130411        0.4999402556
H                0.4411676514        0.2905654732        0.0002209884
H                0.5588323486        0.7094345268        0.0002209884
H                0.9411676514        0.2094345268        0.4997790116
H                0.0588323486        0.7905654732        0.4997790116
H                0.7174275360        0.3784070332       -0.0000050540
H                0.2825724640        0.6215929668       -0.0000050540
H                0.2174275360        0.1215929668        0.5000050540
H                0.7825724640        0.8784070332        0.5000050540
H                0.6385410581        0.1461752656        0.7892428440
H                0.3614589419        0.8538247344        0.7892428440
H                0.1385410581        0.3538247344        0.7107571560
H                0.8614589419        0.6461752656        0.7107571560
H                0.3612611167        0.8538690880        0.2107767194
H                0.6387388833        0.1461309120        0.2107767194
H                0.8612611167        0.6461309120        0.2892232806
H                0.1387388833        0.3538690880        0.2892232806



     Writing config-only to output data dir ./pwscf.save/ :
     XML data file
     NEW-OLD atomic charge density approx. for the potential

     total cpu time spent up to now is      835.0 secs

     Self-consistent Calculation

     iteration #  1     ecut=   100.00 Ry     beta= 0.70
     Davidson diagonalization with overlap
     ethr =  1.00E-06,  avg # of iterations =  4.0

     total cpu time spent up to now is      861.8 secs

     total energy              =    -156.45610105 Ry
     estimated scf accuracy    <       0.00077626 Ry

     iteration #  2     ecut=   100.00 Ry     beta= 0.70
     Davidson diagonalization with overlap
     ethr =  1.62E-06,  avg # of iterations =  2.0

     total cpu time spent up to now is      880.3 secs

     total energy              =    -156.45632765 Ry
     estimated scf accuracy    <       0.00017774 Ry

     iteration #  3     ecut=   100.00 Ry     beta= 0.70
     Davidson diagonalization with overlap
     ethr =  3.70E-07,  avg # of iterations =  2.0

     total cpu time spent up to now is      898.6 secs

     total energy              =    -156.45635139 Ry
     estimated scf accuracy    <       0.00000260 Ry

     iteration #  4     ecut=   100.00 Ry     beta= 0.70
     Davidson diagonalization with overlap
     ethr =  5.41E-09,  avg # of iterations =  3.0

     total cpu time spent up to now is      920.2 secs

     total energy              =    -156.45635271 Ry
     estimated scf accuracy    <       0.00000160 Ry

     iteration #  5     ecut=   100.00 Ry     beta= 0.70
     Davidson diagonalization with overlap
     ethr =  3.32E-09,  avg # of iterations =  2.0

     total cpu time spent up to now is      938.5 secs

     total energy              =    -156.45635289 Ry
     estimated scf accuracy    <       0.00000006 Ry

     iteration #  6     ecut=   100.00 Ry     beta= 0.70
     Davidson diagonalization with overlap
     ethr =  1.22E-10,  avg # of iterations =  4.3

     total cpu time spent up to now is      960.4 secs

     total energy              =    -156.45635292 Ry
     estimated scf accuracy    <       0.00000002 Ry

     iteration #  7     ecut=   100.00 Ry     beta= 0.70
     Davidson diagonalization with overlap
     ethr =  4.54E-11,  avg # of iterations =  3.6

     total cpu time spent up to now is      979.8 secs

     total energy              =    -156.45635293 Ry
     estimated scf accuracy    <          3.5E-10 Ry

     iteration #  8     ecut=   100.00 Ry     beta= 0.70
     Davidson diagonalization with overlap
     ethr =  7.22E-13,  avg # of iterations =  7.3

     total cpu time spent up to now is     1016.3 secs

     End of self-consistent calculation

          k = 0.0000 0.0000 0.0000 ( 27383 PWs)   bands (ev):

   -25.0924 -25.0881 -10.4293 -10.3806 -10.2656 -10.2456 -10.2058 -10.1705
    -6.4815  -5.7188  -5.2936  -5.1323  -2.1087  -1.3631  -1.3321  -1.0222
    -0.6632  -0.6518  -0.6490  -0.5040  -0.3592  -0.0790  -0.0504  -0.0267

          k = 0.0000 0.0000 0.3628 ( 27331 PWs)   bands (ev):

   -25.0881 -25.0850 -10.3705 -10.3626 -10.3451 -10.3394 -10.2553 -10.2455
    -6.1224  -5.5518  -5.3944  -5.2845  -1.7992  -1.5887  -1.1409  -1.1391
    -1.0298  -0.9396  -0.6474  -0.4221  -0.2343  -0.2215  -0.1547  -0.0399

          k = 0.0000 0.0000-0.7255 ( 27266 PWs)   bands (ev):

   -25.0828 -25.0828 -10.5037 -10.5036 -10.2806 -10.2806 -10.2678 -10.2678
    -5.5786  -5.5782  -5.4684  -5.4680  -1.5633  -1.5629  -1.5433  -1.5420
    -0.7263  -0.7254  -0.6683  -0.6670  -0.2146  -0.2145  -0.1932  -0.1929

          k = 0.0000 0.2433 0.0000 ( 27385 PWs)   bands (ev):

   -25.0918 -25.0887 -10.4109 -10.3644 -10.2914 -10.2646 -10.2005 -10.1756
    -6.3362  -5.6618  -5.4859  -5.2223  -1.8388  -1.5111  -1.4014  -0.7649
    -0.7474  -0.7395  -0.4823  -0.3817  -0.3386  -0.2954  -0.1483  -0.0736

          k = 0.0000 0.2433 0.3628 ( 27346 PWs)   bands (ev):

   -25.0876 -25.0855 -10.3907 -10.3634 -10.3270 -10.3252 -10.2581 -10.2564
    -6.0355  -5.5985  -5.4346  -5.3206  -1.6414  -1.6100  -1.3961  -0.9501
    -0.9274  -0.7755  -0.7406  -0.3830  -0.2913  -0.2849  -0.1698  -0.1257

          k = 0.0000 0.2433-0.7255 ( 27276 PWs)   bands (ev):

   -25.0828 -25.0828 -10.5118 -10.5117 -10.2713 -10.2713 -10.2672 -10.2671
    -5.7390  -5.7390  -5.3037  -5.3037  -1.6438  -1.6432  -1.4244  -1.4238
    -0.6621  -0.6613  -0.6410  -0.6404  -0.3334  -0.3333  -0.2024  -0.2021

          k = 0.0000-0.4865 0.0000 ( 27398 PWs)   bands (ev):

   -25.0902 -25.0902 -10.3645 -10.3645 -10.3063 -10.3063 -10.1879 -10.1879
    -5.9636  -5.9636  -5.4259  -5.4259  -1.6081  -1.6081  -1.0263  -1.0263
    -0.7999  -0.7999  -0.4269  -0.4269  -0.2764  -0.2764  -0.1815  -0.1815

          k = 0.0000-0.4865 0.3628 ( 27360 PWs)   bands (ev):

   -25.0865 -25.0865 -10.3874 -10.3874 -10.3044 -10.3044 -10.2699 -10.2699
    -5.8165  -5.8165  -5.3956  -5.3956  -1.5877  -1.5877  -1.2231  -1.2231
    -0.7467  -0.7467  -0.4923  -0.4923  -0.3810  -0.3810  -0.1868  -0.1868

          k = 0.0000-0.4865-0.7255 ( 27296 PWs)   bands (ev):

   -25.0828 -25.0828 -10.5193 -10.5193 -10.2687 -10.2687 -10.2603 -10.2603
    -5.8224  -5.8224  -5.2162  -5.2162  -1.7145  -1.7145  -1.2491  -1.2491
    -0.6964  -0.6964  -0.5726  -0.5726  -0.4980  -0.4980  -0.1718  -0.1718

          k = 0.2493 0.0000 0.0000 ( 27376 PWs)   bands (ev):

   -25.0918 -25.0887 -10.4069 -10.3684 -10.2887 -10.2712 -10.2005 -10.1756
    -6.3439  -5.7708  -5.3086  -5.2365  -1.9510  -1.2706  -1.2389  -1.1101
    -0.6436  -0.6133  -0.5401  -0.5138  -0.4187  -0.3997  -0.1065  -0.0729

          k = 0.2493 0.0000 0.3628 ( 27353 PWs)   bands (ev):

   -25.0876 -25.0854 -10.3840 -10.3710 -10.3448 -10.3106 -10.2670 -10.2488
    -6.0106  -5.5625  -5.4091  -5.3760  -1.7588  -1.5746  -1.3953  -1.0248
    -0.9797  -0.7781  -0.5801  -0.4624  -0.3637  -0.2376  -0.0964  -0.0709

          k = 0.2493 0.0000-0.7255 ( 27332 PWs)   bands (ev):

   -25.0828 -25.0828 -10.5141 -10.5140 -10.2746 -10.2745 -10.2649 -10.2648
    -5.5894  -5.5890  -5.4398  -5.4396  -1.9417  -1.9413  -1.2223  -1.2219
    -0.7135  -0.7133  -0.4751  -0.4737  -0.3558  -0.3556  -0.1542  -0.1540

          k = 0.2493 0.2433 0.0000 ( 27367 PWs)   bands (ev):

   -25.0913 -25.0892 -10.4208 -10.3561 -10.3139 -10.2490 -10.1967 -10.1791
    -6.2305  -5.7410  -5.4637  -5.2832  -1.7321  -1.4693  -1.2513  -0.8624
    -0.7682  -0.7366  -0.5281  -0.3833  -0.3747  -0.2967  -0.2553  -0.1326

          k = 0.2493 0.2433 0.3628 ( 27345 PWs)   bands (ev):

   -25.0873 -25.0858 -10.3835 -10.3647 -10.3618 -10.3027 -10.2690 -10.2465
    -5.9371  -5.5669  -5.4933  -5.3846  -1.7260  -1.5068  -1.4721  -1.0191
    -0.8540  -0.7156  -0.6290  -0.4501  -0.3759  -0.2745  -0.1559  -0.0875

          k = 0.2493 0.2433-0.7255 ( 27326 PWs)   bands (ev):

   -25.0828 -25.0828 -10.5187 -10.5051 -10.2838 -10.2700 -10.2663 -10.2633
    -5.7371  -5.6324  -5.3937  -5.2872  -1.9200  -1.8663  -1.2682  -1.2231
    -0.7465  -0.7389  -0.4843  -0.4696  -0.3232  -0.3104  -0.1909  -0.1695

          k = 0.2493-0.4865 0.0000 ( 27380 PWs)   bands (ev):

   -25.0902 -25.0902 -10.4046 -10.4046 -10.2676 -10.2676 -10.1878 -10.1878
    -5.9432  -5.9432  -5.4436  -5.4436  -1.5228  -1.5228  -1.0392  -1.0392
    -0.8215  -0.8215  -0.4597  -0.4597  -0.2565  -0.2565  -0.2522  -0.2522

          k = 0.2493-0.4865 0.3628 ( 27330 PWs)   bands (ev):

   -25.0865 -25.0865 -10.3822 -10.3822 -10.3300 -10.3300 -10.2530 -10.2530
    -5.7516  -5.7516  -5.4510  -5.4510  -1.6441  -1.6441  -1.2148  -1.2148
    -0.7256  -0.7256  -0.4719  -0.4719  -0.3754  -0.3754  -0.1739  -0.1739

          k = 0.2493-0.4865-0.7255 ( 27300 PWs)   bands (ev):

   -25.0828 -25.0828 -10.5102 -10.5102 -10.2755 -10.2755 -10.2680 -10.2680
    -5.7544  -5.7544  -5.2672  -5.2672  -1.8329  -1.8329  -1.3138  -1.3138
    -0.6552  -0.6552  -0.5349  -0.5349  -0.3436  -0.3436  -0.1703  -0.1703

          k =-0.4987 0.0000 0.0000 ( 27342 PWs)   bands (ev):

   -25.0902 -25.0902 -10.3567 -10.3567 -10.3179 -10.3179 -10.1879 -10.1879
    -6.0220  -6.0220  -5.3231  -5.3231  -1.6006  -1.6006  -0.9416  -0.9416
    -0.6314  -0.6314  -0.6038  -0.6038  -0.5052  -0.5052  -0.1922  -0.1922

          k =-0.4987 0.0000 0.3628 ( 27384 PWs)   bands (ev):

   -25.0865 -25.0865 -10.3882 -10.3882 -10.3143 -10.3143 -10.2644 -10.2644
    -5.7469  -5.7469  -5.4346  -5.4346  -1.6783  -1.6783  -1.2551  -1.2551
    -0.7482  -0.7482  -0.5870  -0.5870  -0.2656  -0.2656  -0.1090  -0.1090

          k =-0.4987 0.0000-0.7255 ( 27380 PWs)   bands (ev):

   -25.0828 -25.0828 -10.5238 -10.5238 -10.2716 -10.2716 -10.2595 -10.2595
    -5.5992  -5.5992  -5.4112  -5.4112  -2.1169  -2.1169  -1.0219  -1.0219
    -0.7297  -0.7297  -0.5617  -0.5617  -0.2032  -0.2032  -0.1779  -0.1779

          k =-0.4987 0.2433 0.0000 ( 27326 PWs)   bands (ev):

   -25.0902 -25.0902 -10.4038 -10.4038 -10.2703 -10.2703 -10.1878 -10.1878
    -5.9776  -5.9776  -5.3871  -5.3871  -1.5255  -1.5255  -0.9496  -0.9496
    -0.7629  -0.7629  -0.6485  -0.6485  -0.3314  -0.3314  -0.2106  -0.2106

          k =-0.4987 0.2433 0.3628 ( 27356 PWs)   bands (ev):

   -25.0865 -25.0865 -10.3826 -10.3826 -10.3330 -10.3330 -10.2521 -10.2521
    -5.7064  -5.7064  -5.4808  -5.4808  -1.6836  -1.6836  -1.2455  -1.2455
    -0.7140  -0.7140  -0.5386  -0.5386  -0.2782  -0.2782  -0.1595  -0.1595

          k =-0.4987 0.2433-0.7255 ( 27344 PWs)   bands (ev):

   -25.0828 -25.0828 -10.5126 -10.5126 -10.2763 -10.2763 -10.2680 -10.2680
    -5.6372  -5.6372  -5.3701  -5.3701  -2.0410  -2.0410  -1.1857  -1.1857
    -0.6872  -0.6872  -0.5151  -0.5151  -0.2418  -0.2418  -0.1326  -0.1326

          k =-0.4987-0.4865 0.0000 ( 27376 PWs)   bands (ev):

   -25.0902 -25.0902 -10.4292 -10.4292 -10.2444 -10.2444 -10.1876 -10.1876
    -5.9221  -5.9221  -5.4617  -5.4617  -1.4160  -1.4160  -1.0727  -1.0727
    -0.8415  -0.8415  -0.4718  -0.4718  -0.3447  -0.3447  -0.2379  -0.2379

          k =-0.4987-0.4865 0.3628 ( 27324 PWs)   bands (ev):

   -25.0865 -25.0865 -10.3734 -10.3734 -10.3515 -10.3515 -10.2438 -10.2438
    -5.6318  -5.6318  -5.5611  -5.5611  -1.6674  -1.6674  -1.2980  -1.2980
    -0.5752  -0.5752  -0.4728  -0.4728  -0.3394  -0.3394  -0.2434  -0.2434

          k =-0.4987-0.4865-0.7255 ( 27312 PWs)   bands (ev):

   -25.0828 -25.0828 -10.5002 -10.5002 -10.2874 -10.2874 -10.2715 -10.2715
    -5.6662  -5.6662  -5.3379  -5.3379  -1.9175  -1.9175  -1.4209  -1.4209
    -0.5063  -0.5063  -0.4759  -0.4759  -0.3291  -0.3291  -0.1492  -0.1492

     highest occupied level (ev):    -0.0267

!    total energy              =    -156.45635293 Ry
     estimated scf accuracy    <          2.7E-11 Ry

     The total energy is the sum of the following terms:
     one-electron contribution =     -31.15128856 Ry
     hartree contribution      =      28.33622659 Ry
     xc contribution           =     -48.87439493 Ry
     ewald contribution        =    -104.76689602 Ry

     convergence has been achieved in   8 iterations

     Forces acting on atoms (cartesian axes, Ry/au):

     atom    1 type  2   force =     0.00000000    0.00000000    0.00000253
     atom    2 type  2   force =     0.00000000    0.00000000   -0.00000253
     atom    3 type  1   force =     0.00076703    0.00202010   -0.00000772
     atom    4 type  1   force =    -0.00076703   -0.00202010   -0.00000772
     atom    5 type  1   force =     0.00076703   -0.00202010    0.00000772
     atom    6 type  1   force =    -0.00076703    0.00202010    0.00000772
     atom    7 type  3   force =     0.00060191    0.00110730   -0.00000817
     atom    8 type  3   force =    -0.00060191   -0.00110730   -0.00000817
     atom    9 type  3   force =     0.00060191   -0.00110730    0.00000817
     atom   10 type  3   force =    -0.00060191    0.00110730    0.00000817
     atom   11 type  3   force =     0.00027266    0.00273709   -0.00000072
     atom   12 type  3   force =    -0.00027266   -0.00273709   -0.00000072
     atom   13 type  3   force =     0.00027266   -0.00273709    0.00000072
     atom   14 type  3   force =    -0.00027266    0.00273709    0.00000072
     atom   15 type  3   force =     0.00111152    0.00092961   -0.00094654
     atom   16 type  3   force =    -0.00111152   -0.00092961   -0.00094654
     atom   17 type  3   force =     0.00111152   -0.00092961    0.00094654
     atom   18 type  3   force =    -0.00111152    0.00092961    0.00094654
     atom   19 type  3   force =    -0.00108854   -0.00093568    0.00093551
     atom   20 type  3   force =     0.00108854    0.00093568    0.00093551
     atom   21 type  3   force =    -0.00108854    0.00093568   -0.00093551
     atom   22 type  3   force =     0.00108854   -0.00093568   -0.00093551

     Total force =     0.008889     Total SCF correction =     0.000002


     Computing stress (Cartesian axis) and pressure

          total   stress  (Ry/bohr**3)                   (kbar)     P=      -24.86
  -0.00015468   0.00000000   0.00000000          -22.75        0.00        0.00
   0.00000000  -0.00015879   0.00000000            0.00      -23.36        0.00
   0.00000000   0.00000000  -0.00019354            0.00        0.00      -28.47

     Volume is kept fixed: isostatic pressure set to zero
     Energy error            =      6.1E-04 Ry
     Gradient error          =      2.7E-03 Ry/Bohr
     Cell gradient error     =      3.6E+00 kbar

     number of scf cycles    =   4
     number of bfgs steps    =   3

     enthalpy           old  =    -156.4557398701 Ry
     enthalpy           new  =    -156.4563529272 Ry

     CASE: enthalpy          _new < enthalpy          _old

     new trust radius        =       0.0058872598 bohr
ibrav =      8
 celldm(1) =     13.20432449
 celldm(2) =      1.02477178
 celldm(3) =      0.68649135
Input lattice vectors:
     1.00311861     0.00000000     0.00000000
     0.00000000     1.02796765     0.00000000
     0.00000000     0.00000000     0.68863225
New lattice vectors in INITIAL alat:
     1.00311861     0.00000000     0.00000000
     0.00000000     1.02796765     0.00000000
     0.00000000     0.00000000     0.68863225
New lattice vectors in NEW alat (for information only):
     1.00000000     0.00000000     0.00000000
     0.00000000     1.02477178     0.00000000
     0.00000000     0.00000000     0.68649135
Discrepancy in bohr =     0.000000    0.000000    0.000000
     new conv_thr            =            6.1E-11 Ry

     new unit-cell volume =   1619.61128 a.u.^3 (   240.00163 Ang^3 )
     density =      2.31107 g/cm^3

CELL_PARAMETERS (alat= 13.16327332)
   1.003118614   0.000000000   0.000000000
   0.000000000   1.027967651   0.000000000
   0.000000000   0.000000000   0.688632250

ATOMIC_POSITIONS (crystal)
Ba               0.5000000000        0.5000000000        0.5001022316
Ba               0.0000000000        0.0000000000        0.9998977684
B                0.6106213714        0.2405939999        0.0000587694
B                0.3893786286        0.7594060001        0.0000587694
B                0.1106213714        0.2594060001        0.4999412306
B                0.8893786286        0.7405939999        0.4999412306
H                0.4412955731        0.2906381671        0.0002199062
H                0.5587044269        0.7093618329        0.0002199062
H                0.9412955731        0.2093618329        0.4997800938
H                0.0587044269        0.7906381671        0.4997800938
H                0.7173990899        0.3785729639       -0.0000051039
H                0.2826009101        0.6214270361       -0.0000051039
H                0.2173990899        0.1214270361        0.5000051039
H                0.7826009101        0.8785729639        0.5000051039
H                0.6386263721        0.1462944249        0.7892245484
H                0.3613736279        0.8537055751        0.7892245484
H                0.1386263721        0.3537055751        0.7107754516
H                0.8613736279        0.6462944249        0.7107754516
H                0.3611779397        0.8537493596        0.2107936330
H                0.6388220603        0.1462506404        0.2107936330
H                0.8611779397        0.6462506404        0.2892063670
H                0.1388220603        0.3537493596        0.2892063670



     Writing config-only to output data dir ./pwscf.save/ :
     XML data file
     NEW-OLD atomic charge density approx. for the potential

     total cpu time spent up to now is     1051.1 secs

     Self-consistent Calculation

     iteration #  1     ecut=   100.00 Ry     beta= 0.70
     Davidson diagonalization with overlap
     ethr =  1.00E-06,  avg # of iterations =  2.0

     Threshold (ethr) on eigenvalues was too large:
     Diagonalizing with lowered threshold

     Davidson diagonalization with overlap
     ethr =  1.14E-08,  avg # of iterations =  3.3

     total cpu time spent up to now is     1090.5 secs

     total energy              =    -156.45647069 Ry
     estimated scf accuracy    <       0.00000777 Ry

     iteration #  2     ecut=   100.00 Ry     beta= 0.70
     Davidson diagonalization with overlap
     ethr =  1.62E-08,  avg # of iterations =  2.0

     total cpu time spent up to now is     1108.8 secs

     total energy              =    -156.45647215 Ry
     estimated scf accuracy    <       0.00000044 Ry

     iteration #  3     ecut=   100.00 Ry     beta= 0.70
     Davidson diagonalization with overlap
     ethr =  9.09E-10,  avg # of iterations =  2.0

     total cpu time spent up to now is     1126.4 secs

     total energy              =    -156.45647222 Ry
     estimated scf accuracy    <       0.00000002 Ry

     iteration #  4     ecut=   100.00 Ry     beta= 0.70
     Davidson diagonalization with overlap
     ethr =  4.21E-11,  avg # of iterations =  4.9

     total cpu time spent up to now is     1149.2 secs

     total energy              =    -156.45647222 Ry
     estimated scf accuracy    <          2.1E-09 Ry

     iteration #  5     ecut=   100.00 Ry     beta= 0.70
     Davidson diagonalization with overlap
     ethr =  4.47E-12,  avg # of iterations =  5.4

     total cpu time spent up to now is     1175.5 secs

     total energy              =    -156.45647223 Ry
     estimated scf accuracy    <          3.7E-10 Ry

     iteration #  6     ecut=   100.00 Ry     beta= 0.70
     Davidson diagonalization with overlap
     ethr =  7.77E-13,  avg # of iterations =  3.3

     total cpu time spent up to now is     1194.5 secs

     End of self-consistent calculation

          k = 0.0000 0.0000 0.0000 ( 27383 PWs)   bands (ev):

   -25.0910 -25.0867 -10.4287 -10.3799 -10.2648 -10.2446 -10.2045 -10.1693
    -6.4828  -5.7206  -5.2951  -5.1343  -2.1123  -1.3651  -1.3339  -1.0265
    -0.6610  -0.6568  -0.6445  -0.5023  -0.3552  -0.0820  -0.0528  -0.0321

          k = 0.0000 0.0000 0.3630 ( 27331 PWs)   bands (ev):

   -25.0867 -25.0836 -10.3696 -10.3624 -10.3451 -10.3384 -10.2543 -10.2444
    -6.1224  -5.5521  -5.3966  -5.2871  -1.8009  -1.5906  -1.1424  -1.1414
    -1.0297  -0.9377  -0.6480  -0.4224  -0.2388  -0.2233  -0.1555  -0.0442

          k = 0.0000 0.0000-0.7261 ( 27266 PWs)   bands (ev):

   -25.0814 -25.0814 -10.5046 -10.5045 -10.2793 -10.2793 -10.2667 -10.2667
    -5.5776  -5.5771  -5.4715  -5.4711  -1.5625  -1.5620  -1.5453  -1.5440
    -0.7274  -0.7266  -0.6696  -0.6684  -0.2191  -0.2191  -0.1952  -0.1950

          k = 0.0000 0.2432 0.0000 ( 27385 PWs)   bands (ev):

   -25.0904 -25.0874 -10.4104 -10.3637 -10.2905 -10.2636 -10.1992 -10.1743
    -6.3376  -5.6644  -5.4865  -5.2242  -1.8430  -1.5136  -1.4032  -0.7691
    -0.7436  -0.7365  -0.4872  -0.3793  -0.3435  -0.2922  -0.1512  -0.0762

          k = 0.0000 0.2432 0.3630 ( 27346 PWs)   bands (ev):

[...]
        18        H      tau(  18) = (   0.8422984   0.7128089   0.4756819  )
        19        H      tau(  19) = (   0.3199756   0.8365524   0.1466465  )
        20        H      tau(  20) = (   0.7246424   0.1963576   0.1466465  )
        21        H      tau(  21) = (   0.8422846   0.7128126   0.1824090  )
        22        H      tau(  22) = (   0.2023334   0.3200974   0.1824090  )

     number of k points=    27
                       cart. coord. in units 2pi/alat
        k(    1) = (   0.0000000   0.0000000   0.0000000), wk =   0.0312500
        k(    2) = (   0.0000000   0.0000000   0.3798752), wk =   0.0625000
        k(    3) = (   0.0000000   0.0000000  -0.7597503), wk =   0.0312500
        k(    4) = (   0.0000000   0.2420346   0.0000000), wk =   0.0625000
        k(    5) = (   0.0000000   0.2420346   0.3798752), wk =   0.1250000
        k(    6) = (   0.0000000   0.2420346  -0.7597503), wk =   0.0625000
        k(    7) = (   0.0000000  -0.4840693   0.0000000), wk =   0.0312500
        k(    8) = (   0.0000000  -0.4840693   0.3798752), wk =   0.0625000
        k(    9) = (   0.0000000  -0.4840693  -0.7597503), wk =   0.0312500
        k(   10) = (   0.2393219   0.0000000   0.0000000), wk =   0.0625000
        k(   11) = (   0.2393219   0.0000000   0.3798752), wk =   0.1250000
        k(   12) = (   0.2393219   0.0000000  -0.7597503), wk =   0.0625000
        k(   13) = (   0.2393219   0.2420346   0.0000000), wk =   0.1250000
        k(   14) = (   0.2393219   0.2420346   0.3798752), wk =   0.2500000
        k(   15) = (   0.2393219   0.2420346  -0.7597503), wk =   0.1250000
        k(   16) = (   0.2393219  -0.4840693   0.0000000), wk =   0.0625000
        k(   17) = (   0.2393219  -0.4840693   0.3798752), wk =   0.1250000
        k(   18) = (   0.2393219  -0.4840693  -0.7597503), wk =   0.0625000
        k(   19) = (  -0.4786439   0.0000000   0.0000000), wk =   0.0312500
        k(   20) = (  -0.4786439   0.0000000   0.3798752), wk =   0.0625000
        k(   21) = (  -0.4786439   0.0000000  -0.7597503), wk =   0.0312500
        k(   22) = (  -0.4786439   0.2420346   0.0000000), wk =   0.0625000
        k(   23) = (  -0.4786439   0.2420346   0.3798752), wk =   0.1250000
        k(   24) = (  -0.4786439   0.2420346  -0.7597503), wk =   0.0625000
        k(   25) = (  -0.4786439  -0.4840693   0.0000000), wk =   0.0312500
        k(   26) = (  -0.4786439  -0.4840693   0.3798752), wk =   0.0625000
        k(   27) = (  -0.4786439  -0.4840693  -0.7597503), wk =   0.0312500

     Dense  grid:   618765 G-vectors     FFT dimensions: ( 128, 128,  80)

     Smooth grid:   218891 G-vectors     FFT dimensions: (  90,  90,  60)

     Estimated max dynamical RAM per process >      99.24 MB

     Estimated total dynamical RAM >       2.33 GB

     Initial potential from superposition of free atoms

     starting charge      47.9682, renormalised to      48.0000
     Starting wfcs are   42 randomized atomic wfcs

     total cpu time spent up to now is    13656.6 secs

     Self-consistent Calculation

     iteration #  1     ecut=   100.00 Ry     beta= 0.70
     Davidson diagonalization with overlap
     ethr =  1.00E-06,  avg # of iterations = 11.2

     total cpu time spent up to now is    13715.8 secs

     total energy              =    -155.81715485 Ry
     estimated scf accuracy    <       2.32602119 Ry

     iteration #  2     ecut=   100.00 Ry     beta= 0.70
     Davidson diagonalization with overlap
     ethr =  4.85E-03,  avg # of iterations =  2.0

     total cpu time spent up to now is    13734.4 secs

     total energy              =    -156.38904777 Ry
     estimated scf accuracy    <       0.47724161 Ry

     iteration #  3     ecut=   100.00 Ry     beta= 0.70
     Davidson diagonalization with overlap
     ethr =  9.94E-04,  avg # of iterations =  2.0

     total cpu time spent up to now is    13753.0 secs

     total energy              =    -156.46479575 Ry
     estimated scf accuracy    <       0.00572159 Ry

     iteration #  4     ecut=   100.00 Ry     beta= 0.70
     Davidson diagonalization with overlap
     ethr =  1.19E-05,  avg # of iterations =  3.4

     total cpu time spent up to now is    13776.3 secs

     total energy              =    -156.46700267 Ry
     estimated scf accuracy    <       0.00233435 Ry

     iteration #  5     ecut=   100.00 Ry     beta= 0.70
     Davidson diagonalization with overlap
     ethr =  4.86E-06,  avg # of iterations =  3.3

     total cpu time spent up to now is    13795.7 secs

     total energy              =    -156.46766709 Ry
     estimated scf accuracy    <       0.00006626 Ry

     iteration #  6     ecut=   100.00 Ry     beta= 0.70
     Davidson diagonalization with overlap
     ethr =  1.38E-07,  avg # of iterations =  5.7

     total cpu time spent up to now is    13825.1 secs

     total energy              =    -156.46776397 Ry
     estimated scf accuracy    <       0.00001742 Ry

     iteration #  7     ecut=   100.00 Ry     beta= 0.70
     Davidson diagonalization with overlap
     ethr =  3.63E-08,  avg # of iterations =  3.3

     total cpu time spent up to now is    13845.0 secs

     total energy              =    -156.46776898 Ry
     estimated scf accuracy    <       0.00000014 Ry

     iteration #  8     ecut=   100.00 Ry     beta= 0.70
     Davidson diagonalization with overlap
     ethr =  2.86E-10,  avg # of iterations =  6.7

     total cpu time spent up to now is    13880.2 secs

     total energy              =    -156.46776940 Ry
     estimated scf accuracy    <       0.00000001 Ry

     iteration #  9     ecut=   100.00 Ry     beta= 0.70
     Davidson diagonalization with overlap
     ethr =  2.25E-11,  avg # of iterations =  4.6

     total cpu time spent up to now is    13903.2 secs

     total energy              =    -156.46776940 Ry
     estimated scf accuracy    <          4.0E-09 Ry

     iteration # 10     ecut=   100.00 Ry     beta= 0.70
     Davidson diagonalization with overlap
     ethr =  8.34E-12,  avg # of iterations =  2.6

     total cpu time spent up to now is    13922.1 secs

     total energy              =    -156.46776940 Ry
     estimated scf accuracy    <          4.1E-10 Ry

     iteration # 11     ecut=   100.00 Ry     beta= 0.70
     Davidson diagonalization with overlap
     ethr =  8.63E-13,  avg # of iterations =  5.3

     total cpu time spent up to now is    13948.0 secs

     total energy              =    -156.46776941 Ry
     estimated scf accuracy    <          5.5E-11 Ry

     iteration # 12     ecut=   100.00 Ry     beta= 0.70
     Davidson diagonalization with overlap
     ethr =  1.15E-13,  avg # of iterations =  4.6

     total cpu time spent up to now is    13971.4 secs

     total energy              =    -156.46776941 Ry
     estimated scf accuracy    <          1.2E-12 Ry

     iteration # 13     ecut=   100.00 Ry     beta= 0.70
     Davidson diagonalization with overlap
     ethr =  1.00E-13,  avg # of iterations =  1.0

     total cpu time spent up to now is    13985.9 secs

     End of self-consistent calculation

          k = 0.0000 0.0000 0.0000 ( 27379 PWs)   bands (ev):

   -24.8180 -24.8132 -10.3042 -10.2771 -10.0753 -10.0524  -9.9798  -9.9368
    -6.6693  -5.8735  -5.3558  -5.3195  -2.4460  -1.4380  -1.3376  -1.1898
    -1.1210  -0.9275  -0.8997  -0.6452  -0.4085  -0.2349  -0.1312  -0.1137

          k = 0.0000 0.0000 0.3799 ( 27358 PWs)   bands (ev):

   -24.8099 -24.8065 -10.2520 -10.2363 -10.2149 -10.1956 -10.0562 -10.0407
    -6.1650  -5.5625  -5.5385  -5.5138  -2.0151  -1.9092  -1.7650  -1.1546
    -1.1003  -1.0683  -0.7488  -0.5132  -0.3875  -0.3402  -0.3307  -0.2447

          k = 0.0000 0.0000-0.7598 ( 27336 PWs)   bands (ev):

   -24.8008 -24.8008 -10.4868 -10.4868 -10.0785 -10.0785 -10.0690 -10.0690
    -5.7245  -5.7245  -5.4738  -5.4737  -2.0546  -2.0544  -1.7721  -1.7721
    -0.7872  -0.7870  -0.6998  -0.6997  -0.4441  -0.4441  -0.3193  -0.3191

          k = 0.0000 0.2420 0.0000 ( 27327 PWs)   bands (ev):

   -24.8173 -24.8139 -10.2825 -10.2556 -10.1044 -10.0798  -9.9735  -9.9431
    -6.5295  -5.9073  -5.4733  -5.3731  -2.2292  -1.6423  -1.3944  -0.9184
    -0.9144  -0.8934  -0.8921  -0.6298  -0.4684  -0.4559  -0.2353  -0.2111

          k = 0.0000 0.2420 0.3799 ( 27336 PWs)   bands (ev):

   -24.8094 -24.8070 -10.2709 -10.2511 -10.1790 -10.1777 -10.0634 -10.0562
    -6.0819  -5.6515  -5.5496  -5.5259  -1.9381  -1.9275  -1.7565  -1.1441
    -1.0484  -0.9182  -0.8242  -0.5362  -0.4262  -0.3453  -0.3413  -0.3351

          k = 0.0000 0.2420-0.7598 ( 27352 PWs)   bands (ev):

   -24.8008 -24.8008 -10.4934 -10.4934 -10.0753 -10.0753 -10.0626 -10.0626
    -5.8491  -5.8491  -5.3402  -5.3402  -2.2005  -2.2004  -1.5935  -1.5934
    -0.7734  -0.7732  -0.6383  -0.6382  -0.4769  -0.4767  -0.3887  -0.3887

          k = 0.0000-0.4841 0.0000 ( 27344 PWs)   bands (ev):

   -24.8156 -24.8156 -10.2391 -10.2391 -10.1286 -10.1286  -9.9583  -9.9583
    -6.1875  -6.1875  -5.4832  -5.4832  -1.9007  -1.9007  -1.0709  -1.0709
    -0.8980  -0.8980  -0.6332  -0.6332  -0.5577  -0.5577  -0.3790  -0.3790

          k = 0.0000-0.4841 0.3799 ( 27338 PWs)   bands (ev):

   -24.8082 -24.8082 -10.2719 -10.2719 -10.1521 -10.1521 -10.0763 -10.0763
    -5.8735  -5.8735  -5.5453  -5.5453  -1.9426  -1.9426  -1.4499  -1.4499
    -0.8733  -0.8733  -0.6496  -0.6496  -0.5050  -0.5050  -0.3318  -0.3318

          k = 0.0000-0.4841-0.7598 ( 27396 PWs)   bands (ev):

   -24.8008 -24.8008 -10.4998 -10.4998 -10.0743 -10.0743 -10.0543 -10.0543
    -5.9281  -5.9281  -5.2519  -5.2519  -2.2970  -2.2970  -1.4318  -1.4318
    -0.7635  -0.7635  -0.6282  -0.6282  -0.5811  -0.5811  -0.3617  -0.3617

          k = 0.2393 0.0000 0.0000 ( 27358 PWs)   bands (ev):

   -24.8173 -24.8139 -10.2790 -10.2577 -10.1018 -10.0842  -9.9735  -9.9431
    -6.5349  -5.9355  -5.4115  -5.3882  -2.2462  -1.5016  -1.3318  -1.1781
    -0.8905  -0.8829  -0.8511  -0.6533  -0.4747  -0.4225  -0.3077  -0.2112

          k = 0.2393 0.0000 0.3799 ( 27345 PWs)   bands (ev):

   -24.8094 -24.8070 -10.2688 -10.2520 -10.1938 -10.1654 -10.0697 -10.0498
    -6.0731  -5.6131  -5.5669  -5.5493  -1.9774  -1.8259  -1.8221  -1.1494
    -1.0205  -0.9597  -0.8019  -0.5643  -0.4745  -0.3455  -0.3174  -0.3020

          k = 0.2393 0.0000-0.7598 ( 27366 PWs)   bands (ev):

   -24.8008 -24.8008 -10.4943 -10.4943 -10.0777 -10.0777 -10.0602 -10.0602
    -5.8129  -5.8129  -5.3729  -5.3728  -2.2736  -2.2735  -1.5270  -1.5270
    -0.7450  -0.7448  -0.6739  -0.6738  -0.4842  -0.4840  -0.3556  -0.3554

          k = 0.2393 0.2420 0.0000 ( 27356 PWs)   bands (ev):

   -24.8168 -24.8144 -10.2997 -10.2357 -10.1318 -10.0585  -9.9690  -9.9475
    -6.4477  -5.9999  -5.4854  -5.3711  -2.0954  -1.6394  -1.3740  -0.9889
    -0.9390  -0.8778  -0.7051  -0.6313  -0.6135  -0.4717  -0.3980  -0.1804

          k = 0.2393 0.2420 0.3799 ( 27354 PWs)   bands (ev):

   -24.8090 -24.8073 -10.2670 -10.2500 -10.2118 -10.1514 -10.0762 -10.0446
    -6.0088  -5.6860  -5.5759  -5.5463  -1.9617  -1.8875  -1.7348  -1.2473
    -0.9694  -0.8886  -0.7622  -0.5420  -0.5230  -0.3839  -0.3305  -0.2745

          k = 0.2393 0.2420-0.7598 ( 27356 PWs)   bands (ev):

   -24.8008 -24.8008 -10.4986 -10.4879 -10.0776 -10.0775 -10.0697 -10.0539
    -5.9014  -5.7533  -5.4329  -5.2760  -2.3458  -2.1540  -1.7368  -1.4793
    -0.7819  -0.6843  -0.5854  -0.5748  -0.5006  -0.4924  -0.4255  -0.2982

          k = 0.2393-0.4841 0.0000 ( 27332 PWs)   bands (ev):

   -24.8156 -24.8156 -10.2793 -10.2793 -10.0852 -10.0852  -9.9582  -9.9582
    -6.2230  -6.2230  -5.4452  -5.4452  -1.8442  -1.8442  -1.1624  -1.1624
    -0.9323  -0.9323  -0.6501  -0.6501  -0.5190  -0.5190  -0.3315  -0.3315

          k = 0.2393-0.4841 0.3799 ( 27354 PWs)   bands (ev):

   -24.8082 -24.8082 -10.2622 -10.2622 -10.1831 -10.1831 -10.0561 -10.0561
    -5.8510  -5.8510  -5.5648  -5.5648  -1.9420  -1.9420  -1.5055  -1.5055
    -0.8819  -0.8819  -0.6415  -0.6415  -0.3977  -0.3977  -0.3568  -0.3568

          k = 0.2393-0.4841-0.7598 ( 27324 PWs)   bands (ev):

   -24.8008 -24.8008 -10.4924 -10.4924 -10.0762 -10.0762 -10.0644 -10.0644
    -5.8627  -5.8627  -5.3150  -5.3150  -2.2623  -2.2623  -1.6477  -1.6477
    -0.7082  -0.7082  -0.5608  -0.5608  -0.4763  -0.4763  -0.3444  -0.3444

          k =-0.4786 0.0000 0.0000 ( 27344 PWs)   bands (ev):

   -24.8156 -24.8156 -10.2354 -10.2354 -10.1328 -10.1328  -9.9583  -9.9583
    -6.2117  -6.2117  -5.4470  -5.4470  -1.8638  -1.8638  -0.9683  -0.9683
    -0.8560  -0.8560  -0.8173  -0.8173  -0.6049  -0.6049  -0.3961  -0.3961

          k =-0.4786 0.0000 0.3799 ( 27360 PWs)   bands (ev):

   -24.8082 -24.8082 -10.2715 -10.2715 -10.1568 -10.1568 -10.0733 -10.0733
    -5.8468  -5.8468  -5.5657  -5.5657  -1.9316  -1.9316  -1.4725  -1.4725
    -0.8337  -0.8337  -0.7396  -0.7396  -0.4546  -0.4546  -0.3394  -0.3394

          k =-0.4786 0.0000-0.7598 ( 27348 PWs)   bands (ev):

   -24.8008 -24.8008 -10.5015 -10.5015 -10.0772 -10.0772 -10.0515 -10.0515
    -5.8724  -5.8724  -5.3002  -5.3002  -2.4040  -2.4040  -1.3386  -1.3386
    -0.7775  -0.7775  -0.6584  -0.6584  -0.4818  -0.4818  -0.3792  -0.3792

          k =-0.4786 0.2420 0.0000 ( 27362 PWs)   bands (ev):

   -24.8156 -24.8156 -10.2783 -10.2783 -10.0864 -10.0864  -9.9582  -9.9582
    -6.2340  -6.2340  -5.4281  -5.4281  -1.8251  -1.8251  -1.1260  -1.1260
    -0.9169  -0.9169  -0.7385  -0.7385  -0.5370  -0.5370  -0.3291  -0.3291

          k =-0.4786 0.2420 0.3799 ( 27370 PWs)   bands (ev):

   -24.8082 -24.8082 -10.2618 -10.2618 -10.1849 -10.1849 -10.0552 -10.0552
    -5.8364  -5.8364  -5.5762  -5.5762  -1.9347  -1.9347  -1.5247  -1.5247
    -0.8488  -0.8488  -0.6760  -0.6760  -0.4068  -0.4068  -0.3448  -0.3448

          k =-0.4786 0.2420-0.7598 ( 27360 PWs)   bands (ev):

   -24.8008 -24.8008 -10.4933 -10.4933 -10.0785 -10.0785 -10.0620 -10.0620
    -5.8294  -5.8294  -5.3446  -5.3446  -2.3333  -2.3333  -1.5778  -1.5778
    -0.7080  -0.7080  -0.6141  -0.6141  -0.4479  -0.4479  -0.3055  -0.3055

          k =-0.4786-0.4841 0.0000 ( 27368 PWs)   bands (ev):

   -24.8156 -24.8156 -10.3063 -10.3063 -10.0549 -10.0549  -9.9581  -9.9581
    -6.2555  -6.2555  -5.4100  -5.4100  -1.7738  -1.7738  -1.2637  -1.2637
    -0.9612  -0.9612  -0.6582  -0.6582  -0.4857  -0.4857  -0.2970  -0.2970

          k =-0.4786-0.4841 0.3799 ( 27328 PWs)   bands (ev):

   -24.8082 -24.8082 -10.2425 -10.2425 -10.2174 -10.2174 -10.0424 -10.0424
    -5.8254  -5.8254  -5.5874  -5.5874  -1.9364  -1.9364  -1.5747  -1.5747
    -0.8611  -0.8611  -0.5758  -0.5758  -0.4569  -0.4569  -0.2948  -0.2948

          k =-0.4786-0.4841-0.7598 ( 27376 PWs)   bands (ev):

   -24.8008 -24.8008 -10.4846 -10.4846 -10.0801 -10.0801 -10.0727 -10.0727
    -5.7769  -5.7769  -5.3985  -5.3985  -2.2100  -2.2100  -1.8278  -1.8278
    -0.6907  -0.6907  -0.5197  -0.5197  -0.4295  -0.4295  -0.2574  -0.2574

     highest occupied level (ev):    -0.1137

!    total energy              =    -156.46776941 Ry
     estimated scf accuracy    <          6.6E-14 Ry

     The total energy is the sum of the following terms:
     one-electron contribution =     -39.16439423 Ry
     hartree contribution      =      32.38288910 Ry
     xc contribution           =     -49.06682442 Ry
     ewald contribution        =    -100.61943985 Ry

     convergence has been achieved in  13 iterations

     Forces acting on atoms (cartesian axes, Ry/au):

     atom    1 type  2   force =     0.00000000    0.00000000   -0.00000420
     atom    2 type  2   force =     0.00000000    0.00000000    0.00000420
     atom    3 type  1   force =    -0.00000348    0.00000436   -0.00000153
     atom    4 type  1   force =     0.00000348   -0.00000436   -0.00000153
     atom    5 type  1   force =    -0.00000348   -0.00000436    0.00000153
     atom    6 type  1   force =     0.00000348    0.00000436    0.00000153
     atom    7 type  3   force =     0.00000304   -0.00000149    0.00000246
     atom    8 type  3   force =    -0.00000304    0.00000149    0.00000246
     atom    9 type  3   force =     0.00000304    0.00000149   -0.00000246
     atom   10 type  3   force =    -0.00000304   -0.00000149   -0.00000246
     atom   11 type  3   force =    -0.00000121   -0.00000184   -0.00000335
     atom   12 type  3   force =     0.00000121    0.00000184   -0.00000335
     atom   13 type  3   force =    -0.00000121    0.00000184    0.00000335
     atom   14 type  3   force =     0.00000121   -0.00000184    0.00000335
     atom   15 type  3   force =     0.00000340   -0.00000036   -0.00000112
     atom   16 type  3   force =    -0.00000340    0.00000036   -0.00000112
     atom   17 type  3   force =     0.00000340    0.00000036    0.00000112
     atom   18 type  3   force =    -0.00000340   -0.00000036    0.00000112
     atom   19 type  3   force =     0.00000269    0.00000308   -0.00000037
     atom   20 type  3   force =    -0.00000269   -0.00000308   -0.00000037
     atom   21 type  3   force =     0.00000269   -0.00000308    0.00000037
     atom   22 type  3   force =    -0.00000269    0.00000308    0.00000037

     Total force =     0.000021     Total SCF correction =     0.000000


     Computing stress (Cartesian axis) and pressure

          total   stress  (Ry/bohr**3)                   (kbar)     P=       -5.51
  -0.00003741   0.00000000   0.00000000           -5.50        0.00        0.00
   0.00000000  -0.00003746   0.00000000            0.00       -5.51        0.00
   0.00000000   0.00000000  -0.00003751            0.00        0.00       -5.52


     Writing all to output data dir ./pwscf.save/ :
     XML data file, charge density, pseudopotentials, collected wavefunctions

     init_run     :     22.75s CPU     24.85s WALL (       2 calls)
     electrons    :  11544.65s CPU  11632.85s WALL (      68 calls)
     update_pot   :     17.22s CPU     19.07s WALL (      66 calls)
     forces       :    256.09s CPU    258.82s WALL (      68 calls)
     stress       :   2057.17s CPU   2063.32s WALL (      68 calls)

     Called by init_run:
     wfcinit      :     18.18s CPU     18.33s WALL (       2 calls)
     potinit      :      0.82s CPU      1.27s WALL (       2 calls)
     hinit0       :      1.76s CPU      3.18s WALL (       2 calls)

     Called by electrons:
     c_bands      :  10234.96s CPU  10301.23s WALL (     527 calls)
     sum_band     :   1120.41s CPU   1132.75s WALL (     527 calls)
     v_of_rho     :     79.69s CPU     83.52s WALL (     568 calls)
     newd         :    112.03s CPU    114.13s WALL (     568 calls)
     mix_rho      :      9.00s CPU      9.91s WALL (     527 calls)

     Called by c_bands:
     init_us_2    :    219.83s CPU    222.46s WALL (   32184 calls)
     cegterg      :   9219.80s CPU   9282.54s WALL (   14229 calls)

     Called by *egterg:
     cdiaghg      :    113.93s CPU    114.83s WALL (   63541 calls)
     h_psi        :   6562.62s CPU   6611.96s WALL (   66106 calls)
     s_psi        :   1175.95s CPU   1181.66s WALL (   66106 calls)
     g_psi        :     21.62s CPU     21.74s WALL (   51823 calls)

     Called by h_psi:
     h_psi:calbec :   1055.87s CPU   1061.52s WALL (   66106 calls)
     vloc_psi     :   4307.06s CPU   4345.54s WALL (   66106 calls)
     add_vuspsi   :   1181.51s CPU   1187.10s WALL (   66106 calls)

     General routines
     calbec       :   1887.11s CPU   1895.80s WALL (   89515 calls)
     fft          :     60.26s CPU     68.14s WALL (    9041 calls)
     ffts         :      3.57s CPU      4.27s WALL (    1095 calls)
     fftw         :   4405.39s CPU   4444.31s WALL ( 2590756 calls)
     interpolate  :      6.22s CPU      7.25s WALL (     568 calls)

     Parallel routines

     PWSCF        :      3h51m CPU      3h53m WALL


   This run was terminated on:  18:36: 9   6Aug2024            

=------------------------------------------------------------------------------=
   JOB DONE.
=------------------------------------------------------------------------------=
