
     Program PWSCF v.7.3.1 starts on 11Jul2024 at 15:30:39 

     This program is part of the open-source Quantum ESPRESSO suite
     for quantum simulation of materials; please cite
         "P. Giannozzi et al., J. Phys.:Condens. Matter 21 395502 (2009);
         "P. Giannozzi et al., J. Phys.:Condens. Matter 29 465901 (2017);
         "P. Giannozzi et al., J. Chem. Phys. 152 154105 (2020);
          URL http://www.quantum-espresso.org", 
     in publications or presentations arising from this work. More details at
     http://www.quantum-espresso.org/quote

     Parallel version (MPI), running on    24 processors

     MPI processes distributed on     1 nodes
     94101 MiB available memory on the printing compute node when the environment starts

     Waiting for input...
     Reading input from standard input

     Current dimensions of program PWSCF are:
     Max number of different atomic species (ntypx) = 10
     Max number of k-points (npk) =  40000
     Max angular momentum in pseudopotentials (lmaxx) =  4

     R & G space division:  proc/nbgrp/npool/nimage =      24
     Subspace diagonalization in iterative solution of the eigenvalue problem:
     a serial algorithm will be used


     Parallelization info
     --------------------
     sticks:   dense  smooth     PW     G-vecs:    dense   smooth      PW
     Min         432     216     59                22602     7990    1157
     Max         434     217     60                22603     7993    1158
     Sum       10377    5191   1429               542451   191797   27781

     Using Slab Decomposition


     Title: 
     volume variation                                                           


     bravais-lattice index     =            8
     lattice parameter (alat)  =      12.5981  a.u.
     unit-cell volume          =    1419.8354 (a.u.)^3
     number of atoms/cell      =           22
     number of atomic types    =            3
     number of electrons       =        48.00
     number of Kohn-Sham states=           24
     kinetic-energy cutoff     =     100.0000  Ry
     charge density cutoff     =     800.0000  Ry
     scf convergence threshold =      1.0E-10
     mixing beta               =       0.7000
     number of iterations used =            8  plain     mixing
     energy convergence thresh.=      1.0E-05
     force convergence thresh. =      1.0E-05
     press convergence thresh. =      5.0E-01
     Exchange-correlation= PBESOL
                           (   1   4  10   8   0   0   0)
     nstep                     =          100


     celldm(1)=  12.598136  celldm(2)=   1.025571  celldm(3)=   0.692394
     celldm(4)=   0.000000  celldm(5)=   0.000000  celldm(6)=   0.000000

     crystal axes: (cart. coord. in units of alat)
               a(1) = (   1.000000   0.000000   0.000000 )  
               a(2) = (   0.000000   1.025571   0.000000 )  
               a(3) = (   0.000000   0.000000   0.692394 )  

     reciprocal axes: (cart. coord. in units 2 pi/alat)
               b(1) = (  1.000000  0.000000  0.000000 )  
               b(2) = (  0.000000  0.975067  0.000000 )  
               b(3) = (  0.000000  0.000000  1.444264 )  


     PseudoPot. # 1 for B  read from file:
     /home/mehlhorn/pseudos/b_pbesol_v1.4.uspp.F.UPF
     MD5 check sum: 369b69bef2c3aeed4453bd8b804fd6a8
     Pseudo is Ultrasoft + core correction, Zval =  3.0
     Generated by new atomic code, or converted to UPF format
     Using radial grid of  781 points,  4 beta functions with: 
                l(1) =   0
                l(2) =   0
                l(3) =   1
                l(4) =   1
     Q(r) pseudized with  8 coefficients,  rinner =    1.100   1.100   1.100


     PseudoPot. # 2 for Ba read from file:
     /home/mehlhorn/pseudos/Ba.nc.z_10.oncvpsp4.dojo.v4-sp.upf
     MD5 check sum: c10ed334bb677c0554edec7181ce9143
     Pseudo is Norm-conserving + core correction, Zval = 10.0
     Generated using ONCVPSP code by D. R. Hamann
     Using radial grid of 1938 points,  8 beta functions with: 
                l(1) =   0
                l(2) =   0
                l(3) =   1
                l(4) =   1
                l(5) =   2
                l(6) =   2
                l(7) =   3
                l(8) =   3

     PseudoPot. # 3 for H  read from file:
     /home/mehlhorn/pseudos/H_ONCV_PBEsol-1.0.upf
     MD5 check sum: 398ef8f67c0a7342c05c87c5e19ea467
     Pseudo is Norm-conserving, Zval =  1.0
     Generated using ONCVPSP code by D. R. Hamann
     Using radial grid of 1180 points,  2 beta functions with: 
                l(1) =   0
                l(2) =   0

     atomic species   valence    mass     pseudopotential
     B                 3.00    10.81100     B ( 1.00)
     Ba               10.00   137.32700     Ba( 1.00)
     H                 1.00     1.00794     H ( 1.00)

      4 Sym. Ops. (no inversion) found ( 2 have fractional translation)



   Cartesian axes

     site n.     atom                  positions (alat units)
         1        Ba     tau(   1) = (   0.5000000   0.5127855   0.3462657  )
         2        Ba     tau(   2) = (   0.0000000   0.0000000   0.6923255  )
         3        B      tau(   3) = (   0.6102570   0.2453190   0.0000455  )
         4        B      tau(   4) = (   0.3897430   0.7802519   0.0000455  )
         5        B      tau(   5) = (   0.1102570   0.2674665   0.3461516  )
         6        B      tau(   6) = (   0.8897430   0.7581045   0.3461516  )
         7        H      tau(   7) = (   0.4340973   0.2996264   0.0001599  )
         8        H      tau(   8) = (   0.5659027   0.7259445   0.0001599  )
         9        H      tau(   9) = (   0.9340973   0.2131590   0.3460372  )
        10        H      tau(  10) = (   0.0659027   0.8124119   0.3460372  )
        11        H      tau(  11) = (   0.7220603   0.3933629  -0.0000058  )
        12        H      tau(  12) = (   0.2779397   0.6322081  -0.0000058  )
        13        H      tau(  13) = (   0.2220603   0.1194226   0.3462029  )
        14        H      tau(  14) = (   0.7779397   0.9061483   0.3462029  )
        15        H      tau(  15) = (   0.6392499   0.1457279   0.5404125  )
        16        H      tau(  16) = (   0.3607501   0.8798430   0.5404125  )
        17        H      tau(  17) = (   0.1392499   0.3670576   0.4981787  )
        18        H      tau(  18) = (   0.8607501   0.6585133   0.4981787  )
        19        H      tau(  19) = (   0.3605328   0.8798946   0.1519977  )
        20        H      tau(  20) = (   0.6394672   0.1456763   0.1519977  )
        21        H      tau(  21) = (   0.8605328   0.6584617   0.1941994  )
        22        H      tau(  22) = (   0.1394672   0.3671092   0.1941994  )

     number of k points=    27
                       cart. coord. in units 2pi/alat
        k(    1) = (   0.0000000   0.0000000   0.0000000), wk =   0.0312500
        k(    2) = (   0.0000000   0.0000000   0.3610660), wk =   0.0625000
        k(    3) = (   0.0000000   0.0000000  -0.7221320), wk =   0.0312500
        k(    4) = (   0.0000000   0.2437667   0.0000000), wk =   0.0625000
        k(    5) = (   0.0000000   0.2437667   0.3610660), wk =   0.1250000
        k(    6) = (   0.0000000   0.2437667  -0.7221320), wk =   0.0625000
        k(    7) = (   0.0000000  -0.4875333   0.0000000), wk =   0.0312500
        k(    8) = (   0.0000000  -0.4875333   0.3610660), wk =   0.0625000
        k(    9) = (   0.0000000  -0.4875333  -0.7221320), wk =   0.0312500
        k(   10) = (   0.2500000   0.0000000   0.0000000), wk =   0.0625000
        k(   11) = (   0.2500000   0.0000000   0.3610660), wk =   0.1250000
        k(   12) = (   0.2500000   0.0000000  -0.7221320), wk =   0.0625000
        k(   13) = (   0.2500000   0.2437667   0.0000000), wk =   0.1250000
        k(   14) = (   0.2500000   0.2437667   0.3610660), wk =   0.2500000
        k(   15) = (   0.2500000   0.2437667  -0.7221320), wk =   0.1250000
        k(   16) = (   0.2500000  -0.4875333   0.0000000), wk =   0.0625000
        k(   17) = (   0.2500000  -0.4875333   0.3610660), wk =   0.1250000
        k(   18) = (   0.2500000  -0.4875333  -0.7221320), wk =   0.0625000
        k(   19) = (  -0.5000000   0.0000000   0.0000000), wk =   0.0312500
        k(   20) = (  -0.5000000   0.0000000   0.3610660), wk =   0.0625000
        k(   21) = (  -0.5000000   0.0000000  -0.7221320), wk =   0.0312500
        k(   22) = (  -0.5000000   0.2437667   0.0000000), wk =   0.0625000
        k(   23) = (  -0.5000000   0.2437667   0.3610660), wk =   0.1250000
        k(   24) = (  -0.5000000   0.2437667  -0.7221320), wk =   0.0625000
        k(   25) = (  -0.5000000  -0.4875333   0.0000000), wk =   0.0312500
        k(   26) = (  -0.5000000  -0.4875333   0.3610660), wk =   0.0625000
        k(   27) = (  -0.5000000  -0.4875333  -0.7221320), wk =   0.0312500

     Dense  grid:   542451 G-vectors     FFT dimensions: ( 120, 120,  80)

     Smooth grid:   191797 G-vectors     FFT dimensions: (  90,  90,  60)

     Estimated max dynamical RAM per process >      90.53 MB

     Estimated total dynamical RAM >       2.12 GB

     Initial potential from superposition of free atoms

     starting charge      47.9682, renormalised to      48.0000
     Starting wfcs are   42 randomized atomic wfcs

     total cpu time spent up to now is       12.1 secs

     Self-consistent Calculation

     iteration #  1     ecut=   100.00 Ry     beta= 0.70
     Davidson diagonalization with overlap
     ethr =  1.00E-02,  avg # of iterations =  2.0

     total cpu time spent up to now is       27.5 secs

     total energy              =    -155.92420279 Ry
     estimated scf accuracy    <       2.09908377 Ry

     iteration #  2     ecut=   100.00 Ry     beta= 0.70
     Davidson diagonalization with overlap
     ethr =  4.37E-03,  avg # of iterations =  2.0

     total cpu time spent up to now is       42.4 secs

     total energy              =    -156.40913979 Ry
     estimated scf accuracy    <       0.37140876 Ry

     iteration #  3     ecut=   100.00 Ry     beta= 0.70
     Davidson diagonalization with overlap
     ethr =  7.74E-04,  avg # of iterations =  2.0

     total cpu time spent up to now is       57.3 secs

     total energy              =    -156.47100799 Ry
     estimated scf accuracy    <       0.00490602 Ry

     iteration #  4     ecut=   100.00 Ry     beta= 0.70
     Davidson diagonalization with overlap
     ethr =  1.02E-05,  avg # of iterations =  5.1

     total cpu time spent up to now is       78.7 secs

     total energy              =    -156.47412475 Ry
     estimated scf accuracy    <       0.00169406 Ry

     iteration #  5     ecut=   100.00 Ry     beta= 0.70
     Davidson diagonalization with overlap
     ethr =  3.53E-06,  avg # of iterations =  3.1

     total cpu time spent up to now is       94.1 secs

     total energy              =    -156.47470915 Ry
     estimated scf accuracy    <       0.00016831 Ry

     iteration #  6     ecut=   100.00 Ry     beta= 0.70
     Davidson diagonalization with overlap
     ethr =  3.51E-07,  avg # of iterations =  4.0

     total cpu time spent up to now is      111.0 secs

     total energy              =    -156.47477149 Ry
     estimated scf accuracy    <       0.00000117 Ry

     iteration #  7     ecut=   100.00 Ry     beta= 0.70
     Davidson diagonalization with overlap
     ethr =  2.44E-09,  avg # of iterations =  9.1

     total cpu time spent up to now is      145.8 secs

     total energy              =    -156.47478073 Ry
     estimated scf accuracy    <       0.00000111 Ry

     iteration #  8     ecut=   100.00 Ry     beta= 0.70
     Davidson diagonalization with overlap
     ethr =  2.30E-09,  avg # of iterations =  2.0

     total cpu time spent up to now is      160.7 secs

     total energy              =    -156.47478100 Ry
     estimated scf accuracy    <       0.00000003 Ry

     iteration #  9     ecut=   100.00 Ry     beta= 0.70
     Davidson diagonalization with overlap
     ethr =  6.04E-11,  avg # of iterations =  5.4

     total cpu time spent up to now is      180.4 secs

     total energy              =    -156.47478102 Ry
     estimated scf accuracy    <          3.4E-09 Ry

     iteration # 10     ecut=   100.00 Ry     beta= 0.70
     Davidson diagonalization with overlap
     ethr =  7.04E-12,  avg # of iterations =  3.6

     total cpu time spent up to now is      198.0 secs

     total energy              =    -156.47478102 Ry
     estimated scf accuracy    <          1.1E-09 Ry

     iteration # 11     ecut=   100.00 Ry     beta= 0.70
     Davidson diagonalization with overlap
     ethr =  2.29E-12,  avg # of iterations =  2.3

     total cpu time spent up to now is      213.0 secs

     End of self-consistent calculation

          k = 0.0000 0.0000 0.0000 ( 23947 PWs)   bands (ev):

   -23.7263 -23.7164  -9.3095  -9.2139  -9.0019  -8.9595  -8.9309  -8.8619
    -5.9698  -4.9959  -4.2687  -4.1243  -1.6658  -0.7414  -0.6538  -0.3142
     0.0753   0.0986   0.1516   0.2662   0.4366   0.8583   0.8723   0.9151

          k = 0.0000 0.0000 0.3611 ( 23978 PWs)   bands (ev):

   -23.7178 -23.7108  -9.2063  -9.2062  -9.1808  -9.1413  -8.9821  -8.9588
    -5.4392  -4.7155  -4.4569  -4.3673  -1.2677  -1.0071  -0.5505  -0.4988
    -0.3449  -0.2207   0.1558   0.4517   0.6452   0.6907   0.7707   0.9204

          k = 0.0000 0.0000-0.7221 ( 24004 PWs)   bands (ev):

   -23.7071 -23.7071  -9.4417  -9.4415  -9.0495  -9.0494  -8.9916  -8.9916
    -4.6988  -4.6984  -4.6314  -4.6309  -1.0303  -1.0298  -1.0182  -1.0166
     0.0599   0.0608   0.1534   0.1552   0.7368   0.7370   0.7508   0.7511

          k = 0.0000 0.2438 0.0000 ( 23979 PWs)   bands (ev):

   -23.7249 -23.7179  -9.2782  -9.1805  -9.0618  -8.9986  -8.9206  -8.8717
    -5.7589  -4.8992  -4.5718  -4.2627  -1.2876  -0.8456  -0.8171  -0.0237
    -0.0045   0.0139   0.3153   0.4425   0.5215   0.5316   0.7675   0.8432

          k = 0.0000 0.2438 0.3611 ( 23978 PWs)   bands (ev):

   -23.7167 -23.7118  -9.2564  -9.2145  -9.1255  -9.1104  -8.9927  -8.9831
    -5.3307  -4.7945  -4.4989  -4.4076  -1.0735  -1.0320  -0.8396  -0.2505
    -0.2060  -0.0107   0.0043   0.5061   0.5785   0.6319   0.7364   0.7946

          k = 0.0000 0.2438-0.7221 ( 23970 PWs)   bands (ev):

   -23.7071 -23.7071  -9.4564  -9.4563  -9.0289  -9.0288  -8.9907  -8.9907
    -5.0091  -5.0091  -4.3083  -4.3082  -1.1594  -1.1587  -0.8308  -0.8301
     0.1401   0.1403   0.1917   0.1933   0.5563   0.5564   0.7449   0.7452

          k = 0.0000-0.4875 0.0000 ( 23926 PWs)   bands (ev):

   -23.7213 -23.7213  -9.1885  -9.1885  -9.0875  -9.0875  -8.8959  -8.8959
    -5.2345  -5.2345  -4.5675  -4.5675  -0.9718  -0.9718  -0.3357  -0.3357
    -0.0897  -0.0897   0.4334   0.4334   0.5705   0.5705   0.6941   0.6941

          k = 0.0000-0.4875 0.3611 ( 23928 PWs)   bands (ev):

   -23.7142 -23.7142  -9.2561  -9.2561  -9.0625  -9.0625  -9.0263  -9.0263
    -5.0611  -5.0611  -4.4798  -4.4798  -1.0166  -1.0166  -0.5992  -0.5992
     0.0459   0.0459   0.3351   0.3351   0.4906   0.4906   0.7105   0.7105

          k = 0.0000-0.4875-0.7221 ( 23904 PWs)   bands (ev):

   -23.7071 -23.7071  -9.4698  -9.4698  -9.0114  -9.0114  -8.9877  -8.9877
    -5.1484  -5.1484  -4.1563  -4.1563  -1.2537  -1.2537  -0.5718  -0.5718
     0.0586   0.0586   0.2667   0.2667   0.3561   0.3561   0.7827   0.7827

          k = 0.2500 0.0000 0.0000 ( 24000 PWs)   bands (ev):

   -23.7248 -23.7178  -9.2673  -9.1941  -9.0499  -9.0179  -8.9206  -8.8717
    -5.7678  -5.0220  -4.3142  -4.2896  -1.4683  -0.5888  -0.5673  -0.4433
     0.1205   0.1601   0.2243   0.2913   0.3924   0.4192   0.8206   0.8574

          k = 0.2500 0.0000 0.3611 ( 23987 PWs)   bands (ev):

   -23.7167 -23.7118  -9.2468  -9.2274  -9.1566  -9.0843  -9.0104  -8.9700
    -5.2834  -4.6950  -4.5044  -4.4930  -1.2388  -0.9900  -0.8439  -0.3001
    -0.2893  -0.0019   0.2281   0.3668   0.5119   0.6422   0.8405   0.8703

          k = 0.2500 0.0000-0.7221 ( 23994 PWs)   bands (ev):

   -23.7071 -23.7071  -9.4617  -9.4615  -9.0341  -9.0341  -8.9880  -8.9880
    -4.7998  -4.7994  -4.4972  -4.4968  -1.5155  -1.5150  -0.5559  -0.5554
     0.0562   0.0566   0.4043   0.4056   0.5319   0.5320   0.7824   0.7828

          k = 0.2500 0.2438 0.0000 ( 23946 PWs)   bands (ev):

   -23.7238 -23.7188  -9.2980  -9.1677  -9.1080  -8.9668  -8.9131  -8.8786
    -5.6205  -4.9779  -4.5730  -4.3201  -1.1684  -0.8212  -0.6059  -0.1333
    -0.0624  -0.0113   0.3015   0.4522   0.4665   0.5510   0.6194   0.7722

          k = 0.2500 0.2438 0.3611 ( 23989 PWs)   bands (ev):

   -23.7160 -23.7125  -9.2497  -9.2060  -9.1981  -9.0620  -9.0229  -8.9623
    -5.1926  -4.7393  -4.5889  -4.4873  -1.2019  -0.9573  -0.8564  -0.2871
    -0.1269   0.0563   0.1602   0.3880   0.4886   0.6043   0.7599   0.8478

          k = 0.2500 0.2438-0.7221 ( 23998 PWs)   bands (ev):

   -23.7071 -23.7071  -9.4691  -9.4434  -9.0583  -9.0134  -8.9964  -8.9884
    -5.0223  -4.8255  -4.4626  -4.2599  -1.4914  -1.4050  -0.6307  -0.5130
     0.0043   0.0084   0.3728   0.4433   0.5419   0.5915   0.7293   0.7592

          k = 0.2500-0.4875 0.0000 ( 23956 PWs)   bands (ev):

   -23.7213 -23.7213  -9.2709  -9.2709  -9.0052  -9.0052  -8.8955  -8.8955
    -5.2436  -5.2436  -4.5461  -4.5461  -0.8768  -0.8768  -0.3456  -0.3456
    -0.1304  -0.1304   0.3615   0.3615   0.6111   0.6111   0.6281   0.6281

          k = 0.2500-0.4875 0.3611 ( 23978 PWs)   bands (ev):

   -23.7142 -23.7142  -9.2435  -9.2435  -9.1320  -9.1320  -8.9779  -8.9779
    -4.9672  -4.9672  -4.5524  -4.5524  -1.1100  -1.1100  -0.5176  -0.5176
     0.0179   0.0179   0.3527   0.3527   0.5025   0.5025   0.7312   0.7312

          k = 0.2500-0.4875-0.7221 ( 23952 PWs)   bands (ev):

   -23.7071 -23.7071  -9.4521  -9.4521  -9.0384  -9.0384  -8.9950  -8.9950
    -5.0312  -5.0312  -4.2422  -4.2422  -1.3741  -1.3741  -0.6351  -0.6351
     0.1245   0.1245   0.2553   0.2553   0.5870   0.5870   0.7468   0.7468

          k =-0.5000 0.0000 0.0000 ( 24004 PWs)   bands (ev):

   -23.7213 -23.7213  -9.1630  -9.1630  -9.1229  -9.1229  -8.8959  -8.8959
    -5.3181  -5.3181  -4.3919  -4.3919  -1.0322  -1.0322  -0.2148  -0.2148
     0.1623   0.1623   0.1770   0.1770   0.2702   0.2702   0.7038   0.7038

          k =-0.5000 0.0000 0.3611 ( 23968 PWs)   bands (ev):

   -23.7142 -23.7142  -9.2606  -9.2606  -9.0869  -9.0869  -9.0101  -9.0101
    -4.9185  -4.9185  -4.5681  -4.5681  -1.1637  -1.1637  -0.5813  -0.5813
     0.0207   0.0207   0.2178   0.2178   0.6051   0.6051   0.8275   0.8275

          k =-0.5000 0.0000-0.7221 ( 24008 PWs)   bands (ev):

   -23.7071 -23.7071  -9.4801  -9.4801  -9.0216  -9.0216  -8.9830  -8.9830
    -4.8493  -4.8493  -4.4112  -4.4112  -1.7344  -1.7344  -0.2442  -0.2442
     0.0534   0.0534   0.2237   0.2237   0.7267   0.7267   0.7367   0.7367

          k =-0.5000 0.2438 0.0000 ( 24002 PWs)   bands (ev):

   -23.7213 -23.7213  -9.2692  -9.2692  -9.0118  -9.0118  -8.8955  -8.8955
    -5.2883  -5.2883  -4.4555  -4.4555  -0.9212  -0.9212  -0.2213  -0.2213
    -0.0614  -0.0614   0.1353   0.1353   0.5178   0.5178   0.6834   0.6834

          k =-0.5000 0.2438 0.3611 ( 23994 PWs)   bands (ev):

   -23.7142 -23.7142  -9.2465  -9.2465  -9.1365  -9.1365  -8.9766  -8.9766
    -4.8751  -4.8751  -4.6171  -4.6171  -1.1694  -1.1694  -0.5508  -0.5508
     0.0554   0.0554   0.2650   0.2650   0.5977   0.5977   0.7565   0.7565

          k =-0.5000 0.2438-0.7221 ( 24000 PWs)   bands (ev):

   -23.7071 -23.7071  -9.4577  -9.4577  -9.0413  -9.0413  -8.9942  -8.9942
    -4.8637  -4.8637  -4.3874  -4.3874  -1.6267  -1.6267  -0.4629  -0.4629
     0.0983   0.0983   0.3006   0.3006   0.6575   0.6575   0.8021   0.8021

          k =-0.5000-0.4875 0.0000 ( 23980 PWs)   bands (ev):

   -23.7213 -23.7213  -9.3190  -9.3190  -8.9570  -8.9570  -8.8951  -8.8951
    -5.2543  -5.2543  -4.5221  -4.5221  -0.7634  -0.7634  -0.3758  -0.3758
    -0.1670  -0.1670   0.3267   0.3267   0.5252   0.5252   0.6477   0.6477

          k =-0.5000-0.4875 0.3611 ( 24000 PWs)   bands (ev):

   -23.7142 -23.7142  -9.2185  -9.2185  -9.1862  -9.1862  -8.9571  -8.9571
    -4.8042  -4.8042  -4.6932  -4.6932  -1.1578  -1.1578  -0.5894  -0.5894
     0.2117   0.2117   0.3526   0.3526   0.5005   0.5005   0.6639   0.6639

          k =-0.5000-0.4875-0.7221 ( 24024 PWs)   bands (ev):

   -23.7071 -23.7071  -9.4320  -9.4320  -9.0678  -9.0678  -9.0018  -9.0018
    -4.8777  -4.8777  -4.3638  -4.3638  -1.4623  -1.4623  -0.7667  -0.7667
     0.3305   0.3305   0.3775   0.3775   0.5238   0.5238   0.7667   0.7667

     highest occupied level (ev):     0.9204

!    total energy              =    -156.47478102 Ry
     estimated scf accuracy    <          4.6E-11 Ry

     The total energy is the sum of the following terms:
     one-electron contribution =     -21.19072671 Ry
     hartree contribution      =      25.20810283 Ry
     xc contribution           =     -49.17078165 Ry
     ewald contribution        =    -111.32137548 Ry

     convergence has been achieved in  11 iterations

     Forces acting on atoms (cartesian axes, Ry/au):

     atom    1 type  2   force =     0.00000000    0.00000000    0.00001358
     atom    2 type  2   force =     0.00000000    0.00000000   -0.00001358
     atom    3 type  1   force =    -0.00003388   -0.00016280   -0.00001238
     atom    4 type  1   force =     0.00003388    0.00016280   -0.00001238
     atom    5 type  1   force =    -0.00003388    0.00016280    0.00001238
     atom    6 type  1   force =     0.00003388   -0.00016280    0.00001238
     atom    7 type  3   force =    -0.00136179    0.00034097   -0.00001607
     atom    8 type  3   force =     0.00136179   -0.00034097   -0.00001607
     atom    9 type  3   force =    -0.00136179   -0.00034097    0.00001607
     atom   10 type  3   force =     0.00136179    0.00034097    0.00001607
     atom   11 type  3   force =     0.00089527    0.00108818    0.00000539
     atom   12 type  3   force =    -0.00089527   -0.00108818    0.00000539
     atom   13 type  3   force =     0.00089527   -0.00108818   -0.00000539
     atom   14 type  3   force =    -0.00089527    0.00108818   -0.00000539
     atom   15 type  3   force =     0.00019125   -0.00080686   -0.00121660
     atom   16 type  3   force =    -0.00019125    0.00080686   -0.00121660
     atom   17 type  3   force =     0.00019125    0.00080686    0.00121660
     atom   18 type  3   force =    -0.00019125   -0.00080686    0.00121660
     atom   19 type  3   force =    -0.00014575    0.00078738    0.00120651
     atom   20 type  3   force =     0.00014575   -0.00078738    0.00120651
     atom   21 type  3   force =    -0.00014575   -0.00078738   -0.00120651
     atom   22 type  3   force =     0.00014575    0.00078738   -0.00120651

     Total force =     0.005744     Total SCF correction =     0.000004


     Computing stress (Cartesian axis) and pressure

          total   stress  (Ry/bohr**3)                   (kbar)     P=        3.09
   0.00001948   0.00000000   0.00000000            2.87        0.00        0.00
   0.00000000   0.00001986   0.00000000            0.00        2.92        0.00
   0.00000000   0.00000000   0.00002365            0.00        0.00        3.48

     Volume is kept fixed: isostatic pressure set to zero

     BFGS Geometry Optimization
     Energy error            =      0.0E+00 Ry
     Gradient error          =      1.4E-03 Ry/Bohr
     Cell gradient error     =      3.9E-01 kbar

     number of scf cycles    =   1
     number of bfgs steps    =   0

     enthalpy           new  =    -156.4747810205 Ry

     new trust radius        =       0.0014723129 bohr
ibrav =      8
 celldm(1) =     12.59766007
 celldm(2) =      1.02558054
 celldm(3) =      0.69246620
Input lattice vectors:
     0.99996219     0.00000000     0.00000000
     0.00000000     1.02554177     0.00000000
     0.00000000     0.00000000     0.69244002
New lattice vectors in INITIAL alat:
     0.99996219     0.00000000     0.00000000
     0.00000000     1.02554177     0.00000000
     0.00000000     0.00000000     0.69244002
New lattice vectors in NEW alat (for information only):
     1.00000000     0.00000000     0.00000000
     0.00000000     1.02558054     0.00000000
     0.00000000     0.00000000     0.69246620
Discrepancy in bohr =     0.000000    0.000000    0.000000
     new conv_thr            =            1.0E-10 Ry

     new unit-cell volume =   1419.83544 a.u.^3 (   210.39790 Ang^3 )
     density =      2.63625 g/cm^3

CELL_PARAMETERS (alat= 12.59813638)
   0.999962193   0.000000000   0.000000000
   0.000000000   1.025541767   0.000000000
   0.000000000   0.000000000   0.692440024

ATOMIC_POSITIONS (crystal)
Ba               0.5000000000        0.5000000000        0.5001007224
Ba               0.0000000000        0.0000000000        0.9998992776
B                0.6102543272        0.2391897800        0.0000642377
B                0.3897456728        0.7608102200        0.0000642377
B                0.1102543272        0.2608102200        0.4999357623
B                0.8897456728        0.7391897800        0.4999357623
H                0.4339891581        0.2921821188        0.0002290913
H                0.5660108419        0.7078178812        0.0002290913
H                0.9339891581        0.2078178812        0.4997709087
H                0.0660108419        0.7921821188        0.4997709087
H                0.7221313313        0.3836392319       -0.0000077535
H                0.2778686687        0.6163607681       -0.0000077535
H                0.2221313313        0.1163607681        0.5000077535
H                0.7778686687        0.8836392319        0.5000077535
H                0.6392651054        0.1420319461        0.7803589418
H                0.3607348946        0.8579680539        0.7803589418
H                0.1392651054        0.3579680539        0.7196410582
H                0.8607348946        0.6420319461        0.7196410582
H                0.3605212615        0.8580168558        0.2196631636
H                0.6394787385        0.1419831442        0.2196631636
H                0.8605212615        0.6419831442        0.2803368364
H                0.1394787385        0.3580168558        0.2803368364



     Writing config-only to output data dir ./pwscf.save/ :
     XML data file
     NEW-OLD atomic charge density approx. for the potential

     total cpu time spent up to now is      243.3 secs

     Self-consistent Calculation

     iteration #  1     ecut=   100.00 Ry     beta= 0.70
     Davidson diagonalization with overlap
     ethr =  1.00E-06,  avg # of iterations =  2.0

     Threshold (ethr) on eigenvalues was too large:
     Diagonalizing with lowered threshold

     Davidson diagonalization with overlap
     ethr =  1.13E-08,  avg # of iterations =  2.0

     total cpu time spent up to now is      271.4 secs

     total energy              =    -156.47480513 Ry
     estimated scf accuracy    <       0.00000830 Ry

     iteration #  2     ecut=   100.00 Ry     beta= 0.70
     Davidson diagonalization with overlap
     ethr =  1.73E-08,  avg # of iterations =  2.0

     total cpu time spent up to now is      286.2 secs

     total energy              =    -156.47480753 Ry
     estimated scf accuracy    <       0.00000176 Ry

     iteration #  3     ecut=   100.00 Ry     beta= 0.70
     Davidson diagonalization with overlap
     ethr =  3.66E-09,  avg # of iterations =  2.0

     total cpu time spent up to now is      301.1 secs

     total energy              =    -156.47480776 Ry
     estimated scf accuracy    <       0.00000003 Ry

     iteration #  4     ecut=   100.00 Ry     beta= 0.70
     Davidson diagonalization with overlap
     ethr =  5.24E-11,  avg # of iterations =  3.0

     total cpu time spent up to now is      319.2 secs

     total energy              =    -156.47480777 Ry
     estimated scf accuracy    <       0.00000002 Ry

     iteration #  5     ecut=   100.00 Ry     beta= 0.70
     Davidson diagonalization with overlap
     ethr =  3.69E-11,  avg # of iterations =  2.0

     total cpu time spent up to now is      334.1 secs

     total energy              =    -156.47480777 Ry
     estimated scf accuracy    <          7.8E-10 Ry

     iteration #  6     ecut=   100.00 Ry     beta= 0.70
     Davidson diagonalization with overlap
     ethr =  1.63E-12,  avg # of iterations =  3.4

     total cpu time spent up to now is      351.0 secs

     total energy              =    -156.47480777 Ry
     estimated scf accuracy    <          1.8E-10 Ry

     iteration #  7     ecut=   100.00 Ry     beta= 0.70
     Davidson diagonalization with overlap
     ethr =  3.72E-13,  avg # of iterations =  3.6

     total cpu time spent up to now is      367.0 secs

     End of self-consistent calculation

          k = 0.0000 0.0000 0.0000 ( 23947 PWs)   bands (ev):

   -23.7250 -23.7151  -9.3081  -9.2126  -9.0006  -8.9583  -8.9297  -8.8606
    -5.9672  -4.9916  -4.2646  -4.1200  -1.6659  -0.7397  -0.6530  -0.3116
     0.0774   0.0996   0.1531   0.2683   0.4384   0.8614   0.8753   0.9184

          k = 0.0000 0.0000 0.3610 ( 23978 PWs)   bands (ev):

   -23.7164 -23.7094  -9.2050  -9.2048  -9.1794  -9.1401  -8.9809  -8.9576
    -5.4365  -4.7114  -4.4526  -4.3629  -1.2680  -1.0067  -0.5502  -0.4970
    -0.3433  -0.2191   0.1580   0.4544   0.6480   0.6937   0.7733   0.9235

          k = 0.0000 0.0000-0.7221 ( 24004 PWs)   bands (ev):

   -23.7058 -23.7058  -9.4402  -9.4400  -9.0482  -9.0482  -8.9904  -8.9904
    -4.6954  -4.6949  -4.6269  -4.6264  -1.0303  -1.0298  -1.0182  -1.0166
     0.0623   0.0631   0.1556   0.1574   0.7398   0.7399   0.7537   0.7540

          k = 0.0000 0.2438 0.0000 ( 23979 PWs)   bands (ev):

   -23.7235 -23.7165  -9.2768  -9.1792  -9.0605  -8.9973  -8.9194  -8.8705
    -5.7561  -4.8948  -4.5682  -4.2584  -1.2871  -0.8448  -0.8158  -0.0218
    -0.0029   0.0167   0.3170   0.4445   0.5242   0.5336   0.7705   0.8462

          k = 0.0000 0.2438 0.3610 ( 23978 PWs)   bands (ev):

   -23.7154 -23.7104  -9.2551  -9.2131  -9.1241  -9.1091  -8.9915  -8.9819
    -5.3278  -4.7906  -4.4948  -4.4032  -1.0735  -1.0318  -0.8390  -0.2492
    -0.2043  -0.0083   0.0062   0.5087   0.5812   0.6348   0.7392   0.7974

          k = 0.0000 0.2438-0.7221 ( 23970 PWs)   bands (ev):

   -23.7058 -23.7058  -9.4549  -9.4548  -9.0277  -9.0276  -8.9894  -8.9894
    -5.0052  -5.0052  -4.3043  -4.3043  -1.1594  -1.1587  -0.8307  -0.8299
     0.1424   0.1426   0.1940   0.1956   0.5590   0.5591   0.7479   0.7482

          k = 0.0000-0.4875 0.0000 ( 23926 PWs)   bands (ev):

   -23.7200 -23.7200  -9.1871  -9.1871  -9.0863  -9.0863  -8.8947  -8.8947
    -5.2314  -5.2314  -4.5632  -4.5632  -0.9711  -0.9711  -0.3340  -0.3340
    -0.0879  -0.0879   0.4364   0.4364   0.5726   0.5726   0.6967   0.6967

          k = 0.0000-0.4875 0.3610 ( 23928 PWs)   bands (ev):

   -23.7129 -23.7129  -9.2547  -9.2547  -9.0612  -9.0612  -9.0251  -9.0251
    -5.0577  -5.0577  -4.4757  -4.4757  -1.0164  -1.0164  -0.5982  -0.5982
     0.0480   0.0480   0.3372   0.3372   0.4935   0.4935   0.7133   0.7133

          k = 0.0000-0.4875-0.7221 ( 23904 PWs)   bands (ev):

   -23.7058 -23.7058  -9.4683  -9.4683  -9.0102  -9.0102  -8.9864  -8.9864
    -5.1444  -5.1444  -4.1524  -4.1524  -1.2537  -1.2537  -0.5716  -0.5716
     0.0611   0.0611   0.2689   0.2689   0.3588   0.3588   0.7857   0.7857

          k = 0.2500 0.0000 0.0000 ( 24000 PWs)   bands (ev):

   -23.7235 -23.7165  -9.2659  -9.1928  -9.0486  -9.0167  -8.9194  -8.8705
    -5.7651  -5.0179  -4.3101  -4.2854  -1.4682  -0.5875  -0.5663  -0.4413
     0.1223   0.1620   0.2261   0.2935   0.3945   0.4217   0.8236   0.8607

          k = 0.2500 0.0000 0.3610 ( 23987 PWs)   bands (ev):

   -23.7154 -23.7104  -9.2454  -9.2260  -9.1553  -9.0830  -9.0091  -8.9687
    -5.2805  -4.6910  -4.5001  -4.4887  -1.2391  -0.9893  -0.8438  -0.2985
    -0.2874   0.0000   0.2306   0.3692   0.5145   0.6448   0.8436   0.8732

          k = 0.2500 0.0000-0.7221 ( 23994 PWs)   bands (ev):

   -23.7058 -23.7058  -9.4602  -9.4600  -9.0329  -9.0329  -8.9868  -8.9867
    -4.7956  -4.7952  -4.4934  -4.4930  -1.5159  -1.5154  -0.5554  -0.5550
     0.0585   0.0589   0.4066   0.4080   0.5346   0.5346   0.7854   0.7857

          k = 0.2500 0.2438 0.0000 ( 23946 PWs)   bands (ev):

   -23.7225 -23.7175  -9.2967  -9.1664  -9.1067  -8.9656  -8.9119  -8.8773
    -5.6175  -4.9739  -4.5691  -4.3161  -1.1678  -0.8202  -0.6044  -0.1316
    -0.0607  -0.0096   0.3041   0.4542   0.4691   0.5531   0.6223   0.7750

          k = 0.2500 0.2438 0.3610 ( 23989 PWs)   bands (ev):

   -23.7146 -23.7111  -9.2483  -9.2046  -9.1968  -9.0607  -9.0217  -8.9611
    -5.1895  -4.7353  -4.5850  -4.4831  -1.2021  -0.9572  -0.8556  -0.2854
    -0.1251   0.0583   0.1625   0.3904   0.4913   0.6070   0.7628   0.8506

          k = 0.2500 0.2438-0.7221 ( 23998 PWs)   bands (ev):

   -23.7058 -23.7058  -9.4676  -9.4419  -9.0570  -9.0122  -8.9952  -8.9872
    -5.0182  -4.8214  -4.4587  -4.2560  -1.4917  -1.4054  -0.6301  -0.5125
     0.0065   0.0106   0.3750   0.4457   0.5447   0.5943   0.7321   0.7623

          k = 0.2500-0.4875 0.0000 ( 23956 PWs)   bands (ev):

   -23.7200 -23.7200  -9.2695  -9.2695  -9.0039  -9.0039  -8.8943  -8.8943
    -5.2402  -5.2402  -4.5422  -4.5422  -0.8757  -0.8757  -0.3438  -0.3438
    -0.1287  -0.1287   0.3639   0.3639   0.6134   0.6134   0.6309   0.6309

          k = 0.2500-0.4875 0.3610 ( 23978 PWs)   bands (ev):

   -23.7129 -23.7129  -9.2422  -9.2422  -9.1306  -9.1306  -8.9766  -8.9766
    -4.9637  -4.9637  -4.5484  -4.5484  -1.1099  -1.1099  -0.5162  -0.5162
     0.0198   0.0198   0.3551   0.3551   0.5051   0.5051   0.7340   0.7340

          k = 0.2500-0.4875-0.7221 ( 23952 PWs)   bands (ev):

   -23.7057 -23.7057  -9.4505  -9.4505  -9.0372  -9.0372  -8.9937  -8.9937
    -5.0271  -5.0271  -4.2383  -4.2383  -1.3745  -1.3745  -0.6344  -0.6344
     0.1269   0.1269   0.2574   0.2574   0.5898   0.5898   0.7497   0.7497

          k =-0.5000 0.0000 0.0000 ( 24004 PWs)   bands (ev):

   -23.7200 -23.7200  -9.1616  -9.1616  -9.1217  -9.1217  -8.8947  -8.8947
    -5.3149  -5.3149  -4.3877  -4.3877  -1.0317  -1.0317  -0.2131  -0.2131
     0.1638   0.1638   0.1796   0.1796   0.2725   0.2725   0.7069   0.7069

          k =-0.5000 0.0000 0.3610 ( 23968 PWs)   bands (ev):

   -23.7129 -23.7129  -9.2592  -9.2592  -9.0856  -9.0856  -9.0088  -9.0088
    -4.9151  -4.9151  -4.5638  -4.5638  -1.1639  -1.1639  -0.5802  -0.5802
     0.0229   0.0229   0.2201   0.2201   0.6077   0.6077   0.8305   0.8305

          k =-0.5000 0.0000-0.7221 ( 24008 PWs)   bands (ev):

   -23.7057 -23.7057  -9.4786  -9.4786  -9.0204  -9.0204  -8.9818  -8.9818
    -4.8449  -4.8449  -4.4075  -4.4075  -1.7350  -1.7350  -0.2435  -0.2435
     0.0557   0.0557   0.2261   0.2261   0.7293   0.7293   0.7398   0.7398

          k =-0.5000 0.2438 0.0000 ( 24002 PWs)   bands (ev):

   -23.7199 -23.7199  -9.2678  -9.2678  -9.0106  -9.0106  -8.8943  -8.8943
    -5.2849  -5.2849  -4.4516  -4.4516  -0.9203  -0.9203  -0.2196  -0.2196
    -0.0598  -0.0598   0.1376   0.1376   0.5200   0.5200   0.6864   0.6864

          k =-0.5000 0.2438 0.3610 ( 23994 PWs)   bands (ev):

   -23.7129 -23.7129  -9.2451  -9.2451  -9.1352  -9.1352  -8.9754  -8.9754
    -4.8716  -4.8716  -4.6129  -4.6129  -1.1695  -1.1695  -0.5495  -0.5495
     0.0576   0.0576   0.2674   0.2674   0.6003   0.6003   0.7593   0.7593

          k =-0.5000 0.2438-0.7221 ( 24000 PWs)   bands (ev):

   -23.7057 -23.7057  -9.4562  -9.4562  -9.0401  -9.0401  -8.9929  -8.9929
    -4.8595  -4.8595  -4.3836  -4.3836  -1.6273  -1.6273  -0.4620  -0.4620
     0.1004   0.1004   0.3032   0.3032   0.6602   0.6602   0.8050   0.8050

          k =-0.5000-0.4875 0.0000 ( 23980 PWs)   bands (ev):

   -23.7199 -23.7199  -9.3177  -9.3177  -8.9558  -8.9558  -8.8939  -8.8939
    -5.2507  -5.2507  -4.5184  -4.5184  -0.7616  -0.7616  -0.3747  -0.3747
    -0.1655  -0.1655   0.3292   0.3292   0.5278   0.5278   0.6500   0.6500

          k =-0.5000-0.4875 0.3610 ( 24000 PWs)   bands (ev):

   -23.7128 -23.7128  -9.2172  -9.2172  -9.1848  -9.1848  -8.9558  -8.9558
    -4.8005  -4.8005  -4.6893  -4.6893  -1.1578  -1.1578  -0.5880  -0.5880
     0.2138   0.2138   0.3553   0.3553   0.5031   0.5031   0.6664   0.6664

          k =-0.5000-0.4875-0.7221 ( 24024 PWs)   bands (ev):

   -23.7057 -23.7057  -9.4305  -9.4305  -9.0666  -9.0666  -9.0005  -9.0005
    -4.8735  -4.8735  -4.3599  -4.3599  -1.4629  -1.4629  -0.7660  -0.7660
     0.3330   0.3330   0.3803   0.3803   0.5263   0.5263   0.7694   0.7694

     highest occupied level (ev):     0.9235

!    total energy              =    -156.47480777 Ry
     estimated scf accuracy    <          4.8E-12 Ry

     The total energy is the sum of the following terms:
     one-electron contribution =     -21.14755587 Ry
     hartree contribution      =      25.18663513 Ry
     xc contribution           =     -49.16541530 Ry
     ewald contribution        =    -111.34847173 Ry

     convergence has been achieved in   7 iterations

     Forces acting on atoms (cartesian axes, Ry/au):

     atom    1 type  2   force =     0.00000000    0.00000000    0.00001123
     atom    2 type  2   force =     0.00000000    0.00000000   -0.00001123
     atom    3 type  1   force =    -0.00004353   -0.00017900   -0.00001144
     atom    4 type  1   force =     0.00004353    0.00017900   -0.00001144
     atom    5 type  1   force =    -0.00004353    0.00017900    0.00001144
     atom    6 type  1   force =     0.00004353   -0.00017900    0.00001144
     atom    7 type  3   force =    -0.00084542    0.00018724   -0.00001733
     atom    8 type  3   force =     0.00084542   -0.00018724   -0.00001733
     atom    9 type  3   force =    -0.00084542   -0.00018724    0.00001733
     atom   10 type  3   force =     0.00084542    0.00018724    0.00001733
     atom   11 type  3   force =     0.00055348    0.00062979    0.00000488
     atom   12 type  3   force =    -0.00055348   -0.00062979    0.00000488
     atom   13 type  3   force =     0.00055348   -0.00062979   -0.00000488
     atom   14 type  3   force =    -0.00055348    0.00062979   -0.00000488
     atom   15 type  3   force =     0.00009975   -0.00049607   -0.00071564
     atom   16 type  3   force =    -0.00009975    0.00049607   -0.00071564
     atom   17 type  3   force =     0.00009975    0.00049607    0.00071564
     atom   18 type  3   force =    -0.00009975   -0.00049607    0.00071564
     atom   19 type  3   force =    -0.00005574    0.00047897    0.00070743
     atom   20 type  3   force =     0.00005574   -0.00047897    0.00070743
     atom   21 type  3   force =    -0.00005574   -0.00047897   -0.00070743
     atom   22 type  3   force =     0.00005574    0.00047897   -0.00070743

     Total force =     0.003457     Total SCF correction =     0.000001


     Computing stress (Cartesian axis) and pressure

          total   stress  (Ry/bohr**3)                   (kbar)     P=        2.40
   0.00001520   0.00000000   0.00000000            2.24        0.00        0.00
   0.00000000   0.00001535   0.00000000            0.00        2.26        0.00
   0.00000000   0.00000000   0.00001838            0.00        0.00        2.70

     Volume is kept fixed: isostatic pressure set to zero
     Energy error            =      2.7E-05 Ry
     Gradient error          =      8.5E-04 Ry/Bohr
     Cell gradient error     =      3.0E-01 kbar

     number of scf cycles    =   2
     number of bfgs steps    =   1

     enthalpy           old  =    -156.4747810205 Ry
     enthalpy           new  =    -156.4748077721 Ry

     CASE: enthalpy          _new < enthalpy          _old

     new trust radius        =       0.0016196026 bohr
ibrav =      8
 celldm(1) =     12.59701388
 celldm(2) =      1.02558784
 celldm(3) =      0.69256785
Input lattice vectors:
     0.99991090     0.00000000     0.00000000
     0.00000000     1.02549646     0.00000000
     0.00000000     0.00000000     0.69250614
New lattice vectors in INITIAL alat:
     0.99991090     0.00000000     0.00000000
     0.00000000     1.02549646     0.00000000
     0.00000000     0.00000000     0.69250614
New lattice vectors in NEW alat (for information only):
     1.00000000     0.00000000     0.00000000
     0.00000000     1.02558784     0.00000000
     0.00000000     0.00000000     0.69256785
Discrepancy in bohr =     0.000000    0.000000    0.000000
     new conv_thr            =            2.7E-12 Ry

     new unit-cell volume =   1419.83544 a.u.^3 (   210.39790 Ang^3 )
     density =      2.63625 g/cm^3

CELL_PARAMETERS (alat= 12.59813638)
   0.999910899   0.000000000   0.000000000
   0.000000000   1.025496460   0.000000000
   0.000000000   0.000000000   0.692506138

ATOMIC_POSITIONS (crystal)
Ba               0.5000000000        0.5000000000        0.5001030960
Ba               0.0000000000        0.0000000000        0.9998969040
B                0.6102479678        0.2391642640        0.0000618201
B                0.3897520322        0.7608357360        0.0000618201
B                0.1102479678        0.2608357360        0.4999381799
B                0.8897520322        0.7391642640        0.4999381799
H                0.4338652005        0.2922089114        0.0002254321
H                0.5661347995        0.7077910886        0.0002254321
H                0.9338652005        0.2077910886        0.4997745679
H                0.0661347995        0.7922089114        0.4997745679
H                0.7222124856        0.3837293161       -0.0000067231
H                0.2777875144        0.6162706839       -0.0000067231
H                0.2222124856        0.1162706839        0.5000067231
H                0.7777875144        0.8837293161        0.5000067231
H                0.6392797503        0.1419610199        0.7802073237
H                0.3607202497        0.8580389801        0.7802073237
H                0.1392797503        0.3580389801        0.7197926763
H                0.8607202497        0.6419610199        0.7197926763
H                0.3605130545        0.8580853425        0.2198130445
H                0.6394869455        0.1419146575        0.2198130445
H                0.8605130545        0.6419146575        0.2801869555
H                0.1394869455        0.3580853425        0.2801869555



     Writing config-only to output data dir ./pwscf.save/ :
     XML data file
     NEW-OLD atomic charge density approx. for the potential

     total cpu time spent up to now is      397.4 secs

     Self-consistent Calculation

     iteration #  1     ecut=   100.00 Ry     beta= 0.70
     Davidson diagonalization with overlap
     ethr =  1.00E-06,  avg # of iterations =  2.0

     Threshold (ethr) on eigenvalues was too large:
     Diagonalizing with lowered threshold

     Davidson diagonalization with overlap
     ethr =  1.51E-08,  avg # of iterations =  2.0

     total cpu time spent up to now is      425.2 secs

     total energy              =    -156.47481903 Ry
     estimated scf accuracy    <       0.00001002 Ry

     iteration #  2     ecut=   100.00 Ry     beta= 0.70
     Davidson diagonalization with overlap
     ethr =  2.09E-08,  avg # of iterations =  2.0

     total cpu time spent up to now is      440.0 secs

     total energy              =    -156.47482189 Ry
     estimated scf accuracy    <       0.00000205 Ry

     iteration #  3     ecut=   100.00 Ry     beta= 0.70
     Davidson diagonalization with overlap
     ethr =  4.26E-09,  avg # of iterations =  2.0

     total cpu time spent up to now is      454.8 secs

     total energy              =    -156.47482216 Ry
     estimated scf accuracy    <       0.00000003 Ry

     iteration #  4     ecut=   100.00 Ry     beta= 0.70
     Davidson diagonalization with overlap
     ethr =  5.92E-11,  avg # of iterations =  3.0

     total cpu time spent up to now is      472.8 secs

     total energy              =    -156.47482217 Ry
     estimated scf accuracy    <       0.00000002 Ry

     iteration #  5     ecut=   100.00 Ry     beta= 0.70
     Davidson diagonalization with overlap
     ethr =  3.92E-11,  avg # of iterations =  2.0

     total cpu time spent up to now is      487.6 secs

     total energy              =    -156.47482217 Ry
     estimated scf accuracy    <          5.4E-10 Ry

     iteration #  6     ecut=   100.00 Ry     beta= 0.70
     Davidson diagonalization with overlap
     ethr =  1.12E-12,  avg # of iterations =  5.0

     total cpu time spent up to now is      506.2 secs

     total energy              =    -156.47482217 Ry
     estimated scf accuracy    <          2.1E-10 Ry

     iteration #  7     ecut=   100.00 Ry     beta= 0.70
     Davidson diagonalization with overlap
     ethr =  4.35E-13,  avg # of iterations =  3.0

     total cpu time spent up to now is      521.6 secs

     total energy              =    -156.47482217 Ry
     estimated scf accuracy    <          4.3E-12 Ry

     iteration #  8     ecut=   100.00 Ry     beta= 0.70
     Davidson diagonalization with overlap
     ethr =  1.00E-13,  avg # of iterations =  3.6

     total cpu time spent up to now is      535.6 secs

     End of self-consistent calculation

          k = 0.0000 0.0000 0.0000 ( 23947 PWs)   bands (ev):

   -23.7236 -23.7136  -9.3066  -9.2112  -8.9992  -8.9569  -8.9284  -8.8593
    -5.9643  -4.9869  -4.2601  -4.1151  -1.6659  -0.7377  -0.6520  -0.3085
     0.0796   0.1010   0.1544   0.2703   0.4401   0.8648   0.8790   0.9224

          k = 0.0000 0.0000 0.3610 ( 23978 PWs)   bands (ev):

   -23.7150 -23.7080  -9.2035  -9.2032  -9.1778  -9.1387  -8.9795  -8.9562
    -5.4335  -4.7069  -4.4479  -4.3578  -1.2683  -1.0063  -0.5497  -0.4949
    -0.3417  -0.2175   0.1604   0.4573   0.6514   0.6971   0.7761   0.9270

          k = 0.0000 0.0000-0.7220 ( 24004 PWs)   bands (ev):

   -23.7044 -23.7044  -9.4384  -9.4382  -9.0470  -9.0469  -8.9890  -8.9890
    -4.6917  -4.6912  -4.6218  -4.6213  -1.0304  -1.0299  -1.0182  -1.0166
     0.0650   0.0658   0.1581   0.1598   0.7433   0.7433   0.7568   0.7571

          k = 0.0000 0.2438 0.0000 ( 23979 PWs)   bands (ev):

   -23.7221 -23.7151  -9.2752  -9.1777  -9.0591  -8.9960  -8.9181  -8.8692
    -5.7531  -4.8900  -4.5643  -4.2536  -1.2865  -0.8438  -0.8142  -0.0200
    -0.0014   0.0198   0.3193   0.4464   0.5274   0.5355   0.7739   0.8498

          k = 0.0000 0.2438 0.3610 ( 23978 PWs)   bands (ev):

   -23.7140 -23.7090  -9.2536  -9.2116  -9.1226  -9.1078  -8.9901  -8.9806
    -5.3246  -4.7862  -4.4903  -4.3983  -1.0734  -1.0314  -0.8381  -0.2479
    -0.2024  -0.0056   0.0081   0.5116   0.5843   0.6381   0.7422   0.8008

          k = 0.0000 0.2438-0.7220 ( 23970 PWs)   bands (ev):

   -23.7044 -23.7044  -9.4532  -9.4530  -9.0264  -9.0264  -8.9881  -8.9881
    -5.0008  -5.0008  -4.2999  -4.2999  -1.1593  -1.1586  -0.8307  -0.8299
     0.1452   0.1454   0.1966   0.1982   0.5619   0.5620   0.7514   0.7516

          k = 0.0000-0.4876 0.0000 ( 23926 PWs)   bands (ev):

   -23.7186 -23.7186  -9.1856  -9.1856  -9.0850  -9.0850  -8.8934  -8.8934
    -5.2279  -5.2279  -4.5586  -4.5586  -0.9702  -0.9702  -0.3318  -0.3318
    -0.0864  -0.0864   0.4398   0.4398   0.5746   0.5746   0.6998   0.6998

          k = 0.0000-0.4876 0.3610 ( 23928 PWs)   bands (ev):

   -23.7115 -23.7115  -9.2532  -9.2532  -9.0597  -9.0597  -9.0238  -9.0238
    -5.0539  -5.0539  -4.4710  -4.4710  -1.0161  -1.0161  -0.5971  -0.5971
     0.0503   0.0503   0.3395   0.3395   0.4970   0.4970   0.7164   0.7164

          k = 0.0000-0.4876-0.7220 ( 23904 PWs)   bands (ev):

   -23.7044 -23.7044  -9.4666  -9.4666  -9.0090  -9.0090  -8.9851  -8.9851
    -5.1400  -5.1400  -4.1481  -4.1481  -1.2537  -1.2537  -0.5716  -0.5716
     0.0640   0.0640   0.2714   0.2714   0.3618   0.3618   0.7892   0.7892

          k = 0.2500 0.0000 0.0000 ( 24000 PWs)   bands (ev):

   -23.7221 -23.7151  -9.2643  -9.1914  -9.0471  -9.0154  -8.9181  -8.8692
    -5.7620  -5.0134  -4.3055  -4.2808  -1.4679  -0.5859  -0.5650  -0.4389
     0.1239   0.1638   0.2279   0.2963   0.3964   0.4246   0.8273   0.8647

          k = 0.2500 0.0000 0.3610 ( 23987 PWs)   bands (ev):

   -23.7140 -23.7090  -9.2439  -9.2245  -9.1538  -9.0816  -9.0077  -8.9674
    -5.2773  -4.6866  -4.4953  -4.4839  -1.2395  -0.9885  -0.8436  -0.2968
    -0.2851   0.0020   0.2334   0.3721   0.5172   0.6478   0.8472   0.8764

          k = 0.2500 0.0000-0.7220 ( 23994 PWs)   bands (ev):

   -23.7044 -23.7044  -9.4584  -9.4583  -9.0317  -9.0316  -8.9854  -8.9854
    -4.7909  -4.7905  -4.4892  -4.4888  -1.5163  -1.5158  -0.5549  -0.5545
     0.0613   0.0617   0.4093   0.4107   0.5375   0.5375   0.7887   0.7891

          k = 0.2500 0.2438 0.0000 ( 23946 PWs)   bands (ev):

   -23.7210 -23.7161  -9.2952  -9.1649  -9.1054  -8.9642  -8.9106  -8.8760
    -5.6143  -4.9694  -4.5649  -4.3116  -1.1669  -0.8190  -0.6026  -0.1294
    -0.0592  -0.0080   0.3071   0.4562   0.4723   0.5552   0.6258   0.7784

          k = 0.2500 0.2438 0.3610 ( 23989 PWs)   bands (ev):

   -23.7132 -23.7097  -9.2468  -9.2031  -9.1954  -9.0592  -9.0204  -8.9597
    -5.1862  -4.7308  -4.5806  -4.4783  -1.2022  -0.9570  -0.8546  -0.2836
    -0.1230   0.0604   0.1651   0.3930   0.4944   0.6102   0.7660   0.8539

          k = 0.2500 0.2438-0.7220 ( 23998 PWs)   bands (ev):

   -23.7043 -23.7043  -9.4659  -9.4402  -9.0558  -9.0110  -8.9939  -8.9858
    -5.0136  -4.8169  -4.4543  -4.2517  -1.4921  -1.4058  -0.6294  -0.5121
     0.0092   0.0133   0.3775   0.4484   0.5480   0.5974   0.7351   0.7660

          k = 0.2500-0.4876 0.0000 ( 23956 PWs)   bands (ev):

   -23.7185 -23.7185  -9.2681  -9.2681  -9.0026  -9.0026  -8.8930  -8.8930
    -5.2364  -5.2364  -4.5379  -4.5379  -0.8745  -0.8745  -0.3417  -0.3417
    -0.1273  -0.1273   0.3668   0.3668   0.6155   0.6155   0.6342   0.6342

          k = 0.2500-0.4876 0.3610 ( 23978 PWs)   bands (ev):

   -23.7114 -23.7114  -9.2407  -9.2407  -9.1292  -9.1292  -8.9753  -8.9753
    -4.9598  -4.9598  -4.5439  -4.5439  -1.1098  -1.1098  -0.5147  -0.5147
     0.0220   0.0220   0.3578   0.3578   0.5082   0.5082   0.7372   0.7372

          k = 0.2500-0.4876-0.7220 ( 23952 PWs)   bands (ev):

   -23.7043 -23.7043  -9.4488  -9.4488  -9.0359  -9.0359  -8.9924  -8.9924
    -5.0226  -5.0226  -4.2339  -4.2339  -1.3748  -1.3748  -0.6338  -0.6338
     0.1296   0.1296   0.2599   0.2599   0.5929   0.5929   0.7531   0.7531

          k =-0.5000 0.0000 0.0000 ( 24004 PWs)   bands (ev):

   -23.7185 -23.7185  -9.1600  -9.1600  -9.1204  -9.1204  -8.8934  -8.8934
    -5.3112  -5.3112  -4.3830  -4.3830  -1.0311  -1.0311  -0.2113  -0.2113
     0.1651   0.1651   0.1827   0.1827   0.2747   0.2747   0.7106   0.7106

          k =-0.5000 0.0000 0.3610 ( 23968 PWs)   bands (ev):

   -23.7114 -23.7114  -9.2577  -9.2577  -9.0841  -9.0841  -9.0075  -9.0075
    -4.9114  -4.9114  -4.5590  -4.5590  -1.1641  -1.1641  -0.5788  -0.5788
     0.0254   0.0254   0.2227   0.2227   0.6105   0.6105   0.8340   0.8340

          k =-0.5000 0.0000-0.7220 ( 24008 PWs)   bands (ev):

   -23.7043 -23.7043  -9.4769  -9.4769  -9.0191  -9.0191  -8.9804  -8.9804
    -4.8400  -4.8400  -4.4035  -4.4035  -1.7356  -1.7356  -0.2428  -0.2428
     0.0585   0.0585   0.2288   0.2288   0.7321   0.7321   0.7435   0.7435

          k =-0.5000 0.2438 0.0000 ( 24002 PWs)   bands (ev):

   -23.7185 -23.7185  -9.2664  -9.2664  -9.0092  -9.0092  -8.8930  -8.8930
    -5.2811  -5.2811  -4.4473  -4.4473  -0.9192  -0.9192  -0.2176  -0.2176
    -0.0583  -0.0583   0.1404   0.1404   0.5221   0.5221   0.6900   0.6900

          k =-0.5000 0.2438 0.3610 ( 23994 PWs)   bands (ev):

   -23.7114 -23.7114  -9.2436  -9.2436  -9.1338  -9.1338  -8.9740  -8.9740
    -4.8678  -4.8678  -4.6083  -4.6083  -1.1696  -1.1696  -0.5480  -0.5480
     0.0601   0.0601   0.2699   0.2699   0.6033   0.6033   0.7626   0.7626

          k =-0.5000 0.2438-0.7220 ( 24000 PWs)   bands (ev):

   -23.7043 -23.7043  -9.4544  -9.4544  -9.0389  -9.0389  -8.9916  -8.9916
    -4.8547  -4.8547  -4.3795  -4.3795  -1.6279  -1.6279  -0.4612  -0.4612
     0.1030   0.1030   0.3059   0.3059   0.6635   0.6635   0.8083   0.8083

          k =-0.5000-0.4876 0.0000 ( 23980 PWs)   bands (ev):

   -23.7185 -23.7185  -9.3162  -9.3162  -8.9544  -8.9544  -8.8926  -8.8926
    -5.2466  -5.2466  -4.5145  -4.5145  -0.7596  -0.7596  -0.3731  -0.3731
    -0.1641  -0.1641   0.3322   0.3322   0.5308   0.5308   0.6522   0.6522

          k =-0.5000-0.4876 0.3610 ( 24000 PWs)   bands (ev):

   -23.7114 -23.7114  -9.2158  -9.2158  -9.1832  -9.1832  -8.9545  -8.9545
    -4.7964  -4.7964  -4.6849  -4.6849  -1.1578  -1.1578  -0.5864  -0.5864
     0.2161   0.2161   0.3585   0.3585   0.5061   0.5061   0.6690   0.6690

          k =-0.5000-0.4876-0.7220 ( 24024 PWs)   bands (ev):

   -23.7043 -23.7043  -9.4288  -9.4288  -9.0653  -9.0653  -8.9992  -8.9992
    -4.8689  -4.8689  -4.3556  -4.3556  -1.4635  -1.4635  -0.7653  -0.7653
     0.3356   0.3356   0.3835   0.3835   0.5294   0.5294   0.7724   0.7724

     highest occupied level (ev):     0.9270

!    total energy              =    -156.47482217 Ry
     estimated scf accuracy    <          1.7E-13 Ry

     The total energy is the sum of the following terms:
     one-electron contribution =     -21.09830808 Ry
     hartree contribution      =      25.16214801 Ry
     xc contribution           =     -49.15945081 Ry
     ewald contribution        =    -111.37921129 Ry

     convergence has been achieved in   8 iterations

     Forces acting on atoms (cartesian axes, Ry/au):

     atom    1 type  2   force =     0.00000000    0.00000000    0.00000743
     atom    2 type  2   force =     0.00000000    0.00000000   -0.00000743
     atom    3 type  1   force =    -0.00005075   -0.00011959   -0.00000941
     atom    4 type  1   force =     0.00005075    0.00011959   -0.00000941
     atom    5 type  1   force =    -0.00005075    0.00011959    0.00000941
     atom    6 type  1   force =     0.00005075   -0.00011959    0.00000941
     atom    7 type  3   force =    -0.00026896    0.00001432   -0.00001904
     atom    8 type  3   force =     0.00026896   -0.00001432   -0.00001904
     atom    9 type  3   force =    -0.00026896   -0.00001432    0.00001904
     atom   10 type  3   force =     0.00026896    0.00001432    0.00001904
     atom   11 type  3   force =     0.00015538    0.00009765    0.00000401
     atom   12 type  3   force =    -0.00015538   -0.00009765    0.00000401
     atom   13 type  3   force =     0.00015538   -0.00009765   -0.00000401
     atom   14 type  3   force =    -0.00015538    0.00009765   -0.00000401
     atom   15 type  3   force =     0.00000246   -0.00017375   -0.00017789
     atom   16 type  3   force =    -0.00000246    0.00017375   -0.00017789
     atom   17 type  3   force =     0.00000246    0.00017375    0.00017789
     atom   18 type  3   force =    -0.00000246   -0.00017375    0.00017789
     atom   19 type  3   force =     0.00003874    0.00016021    0.00017205
     atom   20 type  3   force =    -0.00003874   -0.00016021    0.00017205
     atom   21 type  3   force =     0.00003874   -0.00016021   -0.00017205
     atom   22 type  3   force =    -0.00003874    0.00016021   -0.00017205

     Total force =     0.000984     Total SCF correction =     0.000000


     Computing stress (Cartesian axis) and pressure

          total   stress  (Ry/bohr**3)                   (kbar)     P=        1.63
   0.00001035   0.00000000   0.00000000            1.52        0.00        0.00
   0.00000000   0.00001036   0.00000000            0.00        1.52        0.00
   0.00000000   0.00000000   0.00001260            0.00        0.00        1.85

     Volume is kept fixed: isostatic pressure set to zero
     Energy error            =      1.4E-05 Ry
     Gradient error          =      2.7E-04 Ry/Bohr
     Cell gradient error     =      2.2E-01 kbar

     number of scf cycles    =   3
     number of bfgs steps    =   2

     enthalpy           old  =    -156.4748077721 Ry
     enthalpy           new  =    -156.4748221743 Ry

     CASE: enthalpy          _new < enthalpy          _old

     new trust radius        =       0.0006755928 bohr
ibrav =      8
 celldm(1) =     12.59656272
 celldm(2) =      1.02558966
 celldm(3) =      0.69264103
Input lattice vectors:
     0.99987509     0.00000000     0.00000000
     0.00000000     1.02546155     0.00000000
     0.00000000     0.00000000     0.69255452
New lattice vectors in INITIAL alat:
     0.99987509     0.00000000     0.00000000
     0.00000000     1.02546155     0.00000000
     0.00000000     0.00000000     0.69255452
New lattice vectors in NEW alat (for information only):
     1.00000000     0.00000000     0.00000000
     0.00000000     1.02558966     0.00000000
     0.00000000     0.00000000     0.69264103
Discrepancy in bohr =     0.000000    0.000000    0.000000
     new conv_thr            =            1.4E-12 Ry

     new unit-cell volume =   1419.83544 a.u.^3 (   210.39790 Ang^3 )
     density =      2.63625 g/cm^3

CELL_PARAMETERS (alat= 12.59813638)
   0.999875088   0.000000000   0.000000000
   0.000000000   1.025461553   0.000000000
   0.000000000   0.000000000   0.692554515

ATOMIC_POSITIONS (crystal)
Ba               0.5000000000        0.5000000000        0.5001047243
Ba               0.0000000000        0.0000000000        0.9998952757
B                0.6102411963        0.2391466697        0.0000598700
B                0.3897588037        0.7608533303        0.0000598700
B                0.1102411963        0.2608533303        0.4999401300
B                0.8897588037        0.7391466697        0.4999401300
H                0.4338120662        0.2922155561        0.0002217191
H                0.5661879338        0.7077844439        0.0002217191
H                0.9338120662        0.2077844439        0.4997782809
H                0.0661879338        0.7922155561        0.4997782809
H                0.7222449924        0.3837569344       -0.0000058925
H                0.2777550076        0.6162430656       -0.0000058925
H                0.2222449924        0.1162430656        0.5000058925
H                0.7777550076        0.8837569344        0.5000058925
H                0.6392828200        0.1419289005        0.7801501982
H                0.3607171800        0.8580710995        0.7801501982
H                0.1392828200        0.3580710995        0.7198498018
H                0.8607171800        0.6419289005        0.7198498018
H                0.3605157265        0.8581155501        0.2198689138
H                0.6394842735        0.1418844499        0.2198689138
H                0.8605157265        0.6418844499        0.2801310862
H                0.1394842735        0.3581155501        0.2801310862



     Writing config-only to output data dir ./pwscf.save/ :
     XML data file
     NEW-OLD atomic charge density approx. for the potential

     total cpu time spent up to now is      565.9 secs

     Self-consistent Calculation

     iteration #  1     ecut=   100.00 Ry     beta= 0.70
     Davidson diagonalization with overlap
     ethr =  1.00E-06,  avg # of iterations =  1.0

     Threshold (ethr) on eigenvalues was too large:
     Diagonalizing with lowered threshold

     Davidson diagonalization with overlap
     ethr =  7.59E-10,  avg # of iterations =  4.0

     total cpu time spent up to now is      595.7 secs

     total energy              =    -156.47482313 Ry
     estimated scf accuracy    <       0.00000160 Ry

     iteration #  2     ecut=   100.00 Ry     beta= 0.70
     Davidson diagonalization with overlap
     ethr =  3.32E-09,  avg # of iterations =  2.0

     total cpu time spent up to now is      610.5 secs

     total energy              =    -156.47482360 Ry
     estimated scf accuracy    <       0.00000036 Ry

     iteration #  3     ecut=   100.00 Ry     beta= 0.70
     Davidson diagonalization with overlap
     ethr =  7.44E-10,  avg # of iterations =  2.0

     total cpu time spent up to now is      625.3 secs

     total energy              =    -156.47482365 Ry
     estimated scf accuracy    <          5.6E-09 Ry

     iteration #  4     ecut=   100.00 Ry     beta= 0.70
     Davidson diagonalization with overlap
     ethr =  1.17E-11,  avg # of iterations =  3.0

     total cpu time spent up to now is      642.9 secs

     total energy              =    -156.47482365 Ry
     estimated scf accuracy    <          2.8E-09 Ry

     iteration #  5     ecut=   100.00 Ry     beta= 0.70
     Davidson diagonalization with overlap
     ethr =  5.79E-12,  avg # of iterations =  2.0

     total cpu time spent up to now is      657.7 secs

     total energy              =    -156.47482365 Ry
     estimated scf accuracy    <          7.5E-11 Ry

     iteration #  6     ecut=   100.00 Ry     beta= 0.70
     Davidson diagonalization with overlap
     ethr =  1.57E-13,  avg # of iterations =  5.3

     total cpu time spent up to now is      677.8 secs

     total energy              =    -156.47482365 Ry
     estimated scf accuracy    <          5.0E-11 Ry

     iteration #  7     ecut=   100.00 Ry     beta= 0.70
     Davidson diagonalization with overlap
     ethr =  1.04E-13,  avg # of iterations =  2.0

     total cpu time spent up to now is      692.7 secs

     End of self-consistent calculation

          k = 0.0000 0.0000 0.0000 ( 23947 PWs)   bands (ev):

   -23.7231 -23.7131  -9.3060  -9.2107  -8.9987  -8.9565  -8.9280  -8.8588
    -5.9632  -4.9850  -4.2583  -4.1132  -1.6657  -0.7368  -0.6515  -0.3072
     0.0803   0.1018   0.1546   0.2710   0.4405   0.8663   0.8805   0.9242

          k = 0.0000 0.0000 0.3610 ( 23978 PWs)   bands (ev):

   -23.7145 -23.7075  -9.2030  -9.2026  -9.1771  -9.1382  -8.9790  -8.9558
    -5.4324  -4.7053  -4.4459  -4.3558  -1.2683  -1.0061  -0.5495  -0.4940
    -0.3412  -0.2169   0.1613   0.4584   0.6527   0.6986   0.7773   0.9286

          k = 0.0000 0.0000-0.7220 ( 24004 PWs)   bands (ev):

   -23.7039 -23.7039  -9.4377  -9.4375  -9.0465  -9.0465  -8.9886  -8.9885
    -4.6903  -4.6899  -4.6197  -4.6192  -1.0306  -1.0300  -1.0180  -1.0165
     0.0662   0.0669   0.1590   0.1608   0.7448   0.7449   0.7581   0.7584

          k = 0.0000 0.2438 0.0000 ( 23979 PWs)   bands (ev):

   -23.7216 -23.7146  -9.2746  -9.1772  -9.0586  -8.9955  -8.9176  -8.8687
    -5.7519  -4.8881  -4.5628  -4.2517  -1.2860  -0.8433  -0.8135  -0.0195
    -0.0010   0.0212   0.3204   0.4470   0.5290   0.5361   0.7753   0.8513

          k = 0.0000 0.2438 0.3610 ( 23978 PWs)   bands (ev):

   -23.7135 -23.7085  -9.2530  -9.2110  -9.1220  -9.1073  -8.9896  -8.9801
    -5.3234  -4.7845  -4.4885  -4.3963  -1.0733  -1.0312  -0.8378  -0.2475
    -0.2017  -0.0044   0.0089   0.5128   0.5856   0.6396   0.7434   0.8022

          k = 0.0000 0.2438-0.7220 ( 23970 PWs)   bands (ev):

   -23.7039 -23.7039  -9.4524  -9.4523  -9.0260  -9.0259  -8.9876  -8.9876
    -4.9991  -4.9991  -4.2982  -4.2982  -1.1592  -1.1585  -0.8307  -0.8299
     0.1463   0.1465   0.1977   0.1993   0.5631   0.5632   0.7529   0.7531

          k = 0.0000-0.4876 0.0000 ( 23926 PWs)   bands (ev):

   -23.7181 -23.7181  -9.1850  -9.1850  -9.0845  -9.0845  -8.8930  -8.8930
    -5.2265  -5.2265  -4.5568  -4.5568  -0.9698  -0.9698  -0.3308  -0.3308
    -0.0860  -0.0860   0.4414   0.4414   0.5752   0.5752   0.7012   0.7012

          k = 0.0000-0.4876 0.3610 ( 23928 PWs)   bands (ev):

   -23.7110 -23.7110  -9.2526  -9.2526  -9.0591  -9.0591  -9.0233  -9.0233
    -5.0525  -5.0525  -4.4692  -4.4692  -1.0159  -1.0159  -0.5966  -0.5966
     0.0512   0.0512   0.3404   0.3404   0.4985   0.4985   0.7177   0.7177

          k = 0.0000-0.4876-0.7220 ( 23904 PWs)   bands (ev):

   -23.7039 -23.7039  -9.4659  -9.4659  -9.0085  -9.0085  -8.9846  -8.9846
    -5.1383  -5.1383  -4.1464  -4.1464  -1.2536  -1.2536  -0.5717  -0.5717
     0.0653   0.0653   0.2723   0.2723   0.3630   0.3630   0.7907   0.7907

          k = 0.2500 0.0000 0.0000 ( 24000 PWs)   bands (ev):

   -23.7216 -23.7146  -9.2637  -9.1908  -9.0466  -9.0149  -8.9176  -8.8687
    -5.7608  -5.0117  -4.3037  -4.2790  -1.4677  -0.5851  -0.5645  -0.4379
     0.1244   0.1643   0.2284   0.2975   0.3970   0.4258   0.8288   0.8665

          k = 0.2500 0.0000 0.3610 ( 23987 PWs)   bands (ev):

   -23.7135 -23.7085  -9.2434  -9.2239  -9.1533  -9.0811  -9.0073  -8.9669
    -5.2761  -4.6849  -4.4934  -4.4820  -1.2396  -0.9881  -0.8435  -0.2961
    -0.2841   0.0027   0.2345   0.3733   0.5183   0.6490   0.8488   0.8777

          k = 0.2500 0.0000-0.7220 ( 23994 PWs)   bands (ev):

   -23.7039 -23.7039  -9.4577  -9.4576  -9.0312  -9.0312  -8.9849  -8.9849
    -4.7890  -4.7886  -4.4876  -4.4873  -1.5165  -1.5160  -0.5546  -0.5543
     0.0624   0.0628   0.4104   0.4118   0.5388   0.5388   0.7902   0.7906

          k = 0.2500 0.2438 0.0000 ( 23946 PWs)   bands (ev):

   -23.7205 -23.7156  -9.2946  -9.1643  -9.1049  -8.9637  -8.9102  -8.8756
    -5.6129  -4.9676  -4.5633  -4.3098  -1.1664  -0.8184  -0.6018  -0.1285
    -0.0588  -0.0076   0.3084   0.4568   0.4737   0.5558   0.6272   0.7799

          k = 0.2500 0.2438 0.3610 ( 23989 PWs)   bands (ev):

   -23.7127 -23.7092  -9.2462  -9.2025  -9.1949  -9.0586  -9.0199  -8.9593
    -5.1849  -4.7291  -4.5789  -4.4764  -1.2022  -0.9569  -0.8541  -0.2828
    -0.1222   0.0612   0.1662   0.3941   0.4957   0.6115   0.7673   0.8552

          k = 0.2500 0.2438-0.7220 ( 23998 PWs)   bands (ev):

   -23.7039 -23.7039  -9.4651  -9.4394  -9.0554  -9.0105  -8.9934  -8.9853
    -5.0118  -4.8151  -4.4526  -4.2501  -1.4923  -1.4060  -0.6291  -0.5120
     0.0102   0.0145   0.3784   0.4494   0.5496   0.5987   0.7363   0.7677

          k = 0.2500-0.4876 0.0000 ( 23956 PWs)   bands (ev):

   -23.7180 -23.7180  -9.2675  -9.2675  -9.0021  -9.0021  -8.8925  -8.8925
    -5.2349  -5.2349  -4.5363  -4.5363  -0.8739  -0.8739  -0.3407  -0.3407
    -0.1269  -0.1269   0.3680   0.3680   0.6161   0.6161   0.6357   0.6357

          k = 0.2500-0.4876 0.3610 ( 23978 PWs)   bands (ev):

   -23.7110 -23.7110  -9.2401  -9.2401  -9.1286  -9.1286  -8.9748  -8.9748
    -4.9583  -4.9583  -4.5421  -4.5421  -1.1098  -1.1098  -0.5140  -0.5140
     0.0228   0.0228   0.3589   0.3589   0.5096   0.5096   0.7384   0.7384

          k = 0.2500-0.4876-0.7220 ( 23952 PWs)   bands (ev):

   -23.7038 -23.7038  -9.4481  -9.4481  -9.0355  -9.0355  -8.9919  -8.9919
    -5.0208  -5.0208  -4.2323  -4.2323  -1.3749  -1.3749  -0.6336  -0.6336
     0.1308   0.1308   0.2609   0.2609   0.5943   0.5943   0.7546   0.7546

          k =-0.5001 0.0000 0.0000 ( 24004 PWs)   bands (ev):

   -23.7180 -23.7180  -9.1595  -9.1595  -9.1199  -9.1199  -8.8930  -8.8930
    -5.3097  -5.3097  -4.3812  -4.3812  -1.0306  -1.0306  -0.2105  -0.2105
     0.1654   0.1654   0.1841   0.1841   0.2755   0.2755   0.7123   0.7123

          k =-0.5001 0.0000 0.3610 ( 23968 PWs)   bands (ev):

   -23.7110 -23.7110  -9.2571  -9.2571  -9.0836  -9.0836  -9.0070  -9.0070
    -4.9100  -4.9100  -4.5571  -4.5571  -1.1642  -1.1642  -0.5782  -0.5782
     0.0264   0.0264   0.2238   0.2238   0.6115   0.6115   0.8355   0.8355

          k =-0.5001 0.0000-0.7220 ( 24008 PWs)   bands (ev):

   -23.7038 -23.7038  -9.4762  -9.4762  -9.0187  -9.0187  -8.9799  -8.9799
    -4.8380  -4.8380  -4.4021  -4.4021  -1.7359  -1.7359  -0.2425  -0.2425
     0.0596   0.0596   0.2299   0.2299   0.7333   0.7333   0.7451   0.7451

          k =-0.5001 0.2438 0.0000 ( 24002 PWs)   bands (ev):

   -23.7180 -23.7180  -9.2658  -9.2658  -9.0087  -9.0087  -8.8925  -8.8925
    -5.2795  -5.2795  -4.4456  -4.4456  -0.9185  -0.9185  -0.2168  -0.2168
    -0.0579  -0.0579   0.1415   0.1415   0.5228   0.5228   0.6916   0.6916

          k =-0.5001 0.2438 0.3610 ( 23994 PWs)   bands (ev):

   -23.7109 -23.7109  -9.2431  -9.2431  -9.1332  -9.1332  -8.9736  -8.9736
    -4.8663  -4.8663  -4.6065  -4.6065  -1.1696  -1.1696  -0.5474  -0.5474
     0.0611   0.0611   0.2709   0.2709   0.6044   0.6044   0.7640   0.7640

          k =-0.5001 0.2438-0.7220 ( 24000 PWs)   bands (ev):

   -23.7038 -23.7038  -9.4537  -9.4537  -9.0384  -9.0384  -8.9911  -8.9911
    -4.8528  -4.8528  -4.3779  -4.3779  -1.6281  -1.6281  -0.4609  -0.4609
     0.1041   0.1041   0.3070   0.3070   0.6649   0.6649   0.8096   0.8096

          k =-0.5001-0.4876 0.0000 ( 23980 PWs)   bands (ev):

   -23.7180 -23.7180  -9.3157  -9.3157  -8.9539  -8.9539  -8.8921  -8.8921
    -5.2450  -5.2450  -4.5130  -4.5130  -0.7587  -0.7587  -0.3725  -0.3725
    -0.1637  -0.1637   0.3335   0.3335   0.5321   0.5321   0.6529   0.6529

          k =-0.5001-0.4876 0.3610 ( 24000 PWs)   bands (ev):

   -23.7109 -23.7109  -9.2153  -9.2153  -9.1826  -9.1826  -8.9540  -8.9540
    -4.7948  -4.7948  -4.6833  -4.6833  -1.1578  -1.1578  -0.5858  -0.5858
     0.2170   0.2170   0.3598   0.3598   0.5074   0.5074   0.6700   0.6700

          k =-0.5001-0.4876-0.7220 ( 24024 PWs)   bands (ev):

   -23.7038 -23.7038  -9.4280  -9.4280  -9.0649  -9.0649  -8.9987  -8.9987
    -4.8670  -4.8670  -4.3540  -4.3540  -1.4637  -1.4637  -0.7650  -0.7650
     0.3367   0.3367   0.3849   0.3849   0.5308   0.5308   0.7736   0.7736

     highest occupied level (ev):     0.9286

!    total energy              =    -156.47482365 Ry
     estimated scf accuracy    <          1.1E-12 Ry

     The total energy is the sum of the following terms:
     one-electron contribution =     -21.07751072 Ry
     hartree contribution      =      25.15180905 Ry
     xc contribution           =     -49.15710115 Ry
     ewald contribution        =    -111.39202082 Ry

     convergence has been achieved in   7 iterations

     Forces acting on atoms (cartesian axes, Ry/au):

     atom    1 type  2   force =     0.00000000    0.00000000    0.00000436
     atom    2 type  2   force =     0.00000000    0.00000000   -0.00000436
     atom    3 type  1   force =    -0.00004916   -0.00008387   -0.00000795
     atom    4 type  1   force =     0.00004916    0.00008387   -0.00000795
     atom    5 type  1   force =    -0.00004916    0.00008387    0.00000795
     atom    6 type  1   force =     0.00004916   -0.00008387    0.00000795
     atom    7 type  3   force =    -0.00005050   -0.00004922   -0.00002001
     atom    8 type  3   force =     0.00005050    0.00004922   -0.00002001
     atom    9 type  3   force =    -0.00005050    0.00004922    0.00002001
     atom   10 type  3   force =     0.00005050   -0.00004922    0.00002001
     atom   11 type  3   force =    -0.00000066   -0.00010626    0.00000335
     atom   12 type  3   force =     0.00000066    0.00010626    0.00000335
     atom   13 type  3   force =    -0.00000066    0.00010626   -0.00000335
     atom   14 type  3   force =     0.00000066   -0.00010626   -0.00000335
     atom   15 type  3   force =    -0.00003548   -0.00005453    0.00003544
     atom   16 type  3   force =     0.00003548    0.00005453    0.00003544
     atom   17 type  3   force =    -0.00003548    0.00005453   -0.00003544
     atom   18 type  3   force =     0.00003548   -0.00005453   -0.00003544
     atom   19 type  3   force =     0.00007409    0.00004368   -0.00003958
     atom   20 type  3   force =    -0.00007409   -0.00004368   -0.00003958
     atom   21 type  3   force =     0.00007409   -0.00004368    0.00003958
     atom   22 type  3   force =    -0.00007409    0.00004368    0.00003958

     Total force =     0.000403     Total SCF correction =     0.000001


     Computing stress (Cartesian axis) and pressure

          total   stress  (Ry/bohr**3)                   (kbar)     P=        1.33
   0.00000850   0.00000000   0.00000000            1.25        0.00        0.00
   0.00000000   0.00000848   0.00000000            0.00        1.25        0.00
   0.00000000   0.00000000   0.00001017            0.00        0.00        1.50

     Volume is kept fixed: isostatic pressure set to zero
     Energy error            =      1.5E-06 Ry
     Gradient error          =      1.1E-04 Ry/Bohr
     Cell gradient error     =      1.6E-01 kbar

     number of scf cycles    =   4
     number of bfgs steps    =   3

     enthalpy           old  =    -156.4748221743 Ry
     enthalpy           new  =    -156.4748236490 Ry

     CASE: enthalpy          _new < enthalpy          _old

     new trust radius        =       0.0002878994 bohr
ibrav =      8
 celldm(1) =     12.59632421
 celldm(2) =      1.02558931
 celldm(3) =      0.69268062
Input lattice vectors:
     0.99985616     0.00000000     0.00000000
     0.00000000     1.02544179     0.00000000
     0.00000000     0.00000000     0.69258098
New lattice vectors in INITIAL alat:
     0.99985616     0.00000000     0.00000000
     0.00000000     1.02544179     0.00000000
     0.00000000     0.00000000     0.69258098
New lattice vectors in NEW alat (for information only):
     1.00000000     0.00000000     0.00000000
     0.00000000     1.02558931     0.00000000
     0.00000000     0.00000000     0.69268062
Discrepancy in bohr =     0.000000    0.000000    0.000000
     new conv_thr            =            1.0E-12 Ry

     new unit-cell volume =   1419.83544 a.u.^3 (   210.39790 Ang^3 )
     density =      2.63625 g/cm^3

CELL_PARAMETERS (alat= 12.59813638)
   0.999856156   0.000000000   0.000000000
   0.000000000   1.025441788   0.000000000
   0.000000000   0.000000000   0.692580977

ATOMIC_POSITIONS (crystal)
Ba               0.5000000000        0.5000000000        0.5001054481
Ba               0.0000000000        0.0000000000        0.9998945519
B                0.6102362301        0.2391376873        0.0000586643
B                0.3897637699        0.7608623127        0.0000586643
B                0.1102362301        0.2608623127        0.4999413357
B                0.8897637699        0.7391376873        0.4999413357
H                0.4338012856        0.2922123248        0.0002188213
H                0.5661987144        0.7077876752        0.0002188213
H                0.9338012856        0.2077876752        0.4997811787
H                0.0661987144        0.7922123248        0.4997811787
H                0.7222489003        0.3837515578       -0.0000053838
H                0.2777510997        0.6162484422       -0.0000053838
H                0.2222489003        0.1162484422        0.5000053838
H                0.7777510997        0.8837515578        0.5000053838
H                0.6392802014        0.1419204505        0.7801475345
H                0.3607197986        0.8580795495        0.7801475345
H                0.1392802014        0.3580795495        0.7198524655
H                0.8607197986        0.6419204505        0.7198524655
H                0.3605223043        0.8581228764        0.2198709216
H                0.6394776957        0.1418771236        0.2198709216
H                0.8605223043        0.6418771236        0.2801290784
H                0.1394776957        0.3581228764        0.2801290784



     Writing config-only to output data dir ./pwscf.save/ :
     XML data file
     NEW-OLD atomic charge density approx. for the potential

     total cpu time spent up to now is      723.0 secs

     Self-consistent Calculation

     iteration #  1     ecut=   100.00 Ry     beta= 0.70
     Davidson diagonalization with overlap
     ethr =  1.00E-06,  avg # of iterations =  1.0

     Threshold (ethr) on eigenvalues was too large:
     Diagonalizing with lowered threshold

     Davidson diagonalization with overlap
     ethr =  2.39E-11,  avg # of iterations =  4.1

     total cpu time spent up to now is      756.3 secs

     total energy              =    -156.47482390 Ry
     estimated scf accuracy    <       0.00000003 Ry

     iteration #  2     ecut=   100.00 Ry     beta= 0.70
     Davidson diagonalization with overlap
     ethr =  6.63E-11,  avg # of iterations =  2.0

     total cpu time spent up to now is      771.1 secs

     total energy              =    -156.47482390 Ry
     estimated scf accuracy    <          3.2E-09 Ry

     iteration #  3     ecut=   100.00 Ry     beta= 0.70
     Davidson diagonalization with overlap
     ethr =  6.68E-12,  avg # of iterations =  2.0

     total cpu time spent up to now is      785.9 secs

     total energy              =    -156.47482390 Ry
     estimated scf accuracy    <          9.0E-11 Ry

     iteration #  4     ecut=   100.00 Ry     beta= 0.70
     Davidson diagonalization with overlap
     ethr =  1.88E-13,  avg # of iterations =  4.2

     total cpu time spent up to now is      803.4 secs

     total energy              =    -156.47482390 Ry
     estimated scf accuracy    <          1.4E-11 Ry

     iteration #  5     ecut=   100.00 Ry     beta= 0.70
     Davidson diagonalization with overlap
     ethr =  1.00E-13,  avg # of iterations =  2.1

     total cpu time spent up to now is      816.9 secs

     End of self-consistent calculation

          k = 0.0000 0.0000 0.0000 ( 23947 PWs)   bands (ev):

   -23.7231 -23.7132  -9.3059  -9.2107  -8.9987  -8.9565  -8.9280  -8.8589
    -5.9630  -4.9848  -4.2581  -4.1129  -1.6655  -0.7367  -0.6514  -0.3069
     0.0802   0.1020   0.1544   0.2710   0.4403   0.8665   0.8807   0.9246

          k = 0.0000 0.0000 0.3610 ( 23978 PWs)   bands (ev):

   -23.7146 -23.7075  -9.2030  -9.2025  -9.1770  -9.1382  -8.9790  -8.9558
    -5.4324  -4.7052  -4.4457  -4.3555  -1.2683  -1.0060  -0.5493  -0.4939
    -0.3412  -0.2170   0.1615   0.4586   0.6528   0.6989   0.7774   0.9289

          k = 0.0000 0.0000-0.7219 ( 24004 PWs)   bands (ev):

   -23.7039 -23.7039  -9.4375  -9.4373  -9.0466  -9.0465  -8.9886  -8.9885
    -4.6903  -4.6899  -4.6194  -4.6189  -1.0306  -1.0300  -1.0179  -1.0164
     0.0663   0.0670   0.1591   0.1609   0.7452   0.7452   0.7583   0.7586

          k = 0.0000 0.2438 0.0000 ( 23979 PWs)   bands (ev):

   -23.7216 -23.7146  -9.2746  -9.1772  -9.0586  -8.9955  -8.9177  -8.8688
    -5.7518  -4.8878  -4.5626  -4.2515  -1.2858  -0.8432  -0.8134  -0.0196
    -0.0012   0.0215   0.3207   0.4470   0.5293   0.5360   0.7755   0.8515

          k = 0.0000 0.2438 0.3610 ( 23978 PWs)   bands (ev):

   -23.7135 -23.7085  -9.2530  -9.2109  -9.1220  -9.1073  -8.9896  -8.9801
    -5.3234  -4.7844  -4.4883  -4.3961  -1.0732  -1.0311  -0.8377  -0.2475
    -0.2016  -0.0042   0.0089   0.5130   0.5858   0.6399   0.7435   0.8024

          k = 0.0000 0.2438-0.7219 ( 23970 PWs)   bands (ev):

   -23.7039 -23.7039  -9.4523  -9.4521  -9.0260  -9.0260  -8.9876  -8.9876
    -4.9990  -4.9989  -4.2980  -4.2980  -1.1591  -1.1584  -0.8308  -0.8300
     0.1465   0.1467   0.1978   0.1994   0.5633   0.5633   0.7532   0.7534

          k = 0.0000-0.4876 0.0000 ( 23926 PWs)   bands (ev):

   -23.7181 -23.7181  -9.1849  -9.1849  -9.0845  -9.0845  -8.8930  -8.8930
    -5.2263  -5.2263  -4.5566  -4.5566  -0.9696  -0.9696  -0.3305  -0.3305
    -0.0861  -0.0861   0.4417   0.4417   0.5752   0.5752   0.7014   0.7014

          k = 0.0000-0.4876 0.3610 ( 23928 PWs)   bands (ev):

   -23.7110 -23.7110  -9.2525  -9.2525  -9.0591  -9.0591  -9.0233  -9.0233
    -5.0524  -5.0524  -4.4690  -4.4690  -1.0158  -1.0158  -0.5965  -0.5965
     0.0513   0.0513   0.3405   0.3405   0.4989   0.4989   0.7178   0.7178

          k = 0.0000-0.4876-0.7219 ( 23904 PWs)   bands (ev):

   -23.7039 -23.7039  -9.4657  -9.4657  -9.0086  -9.0086  -8.9846  -8.9846
    -5.1381  -5.1381  -4.1463  -4.1463  -1.2535  -1.2535  -0.5717  -0.5717
     0.0655   0.0655   0.2724   0.2724   0.3632   0.3632   0.7910   0.7910

          k = 0.2500 0.0000 0.0000 ( 24000 PWs)   bands (ev):

   -23.7216 -23.7146  -9.2637  -9.1908  -9.0466  -9.0149  -8.9177  -8.8688
    -5.7606  -5.0114  -4.3035  -4.2788  -1.4675  -0.5849  -0.5644  -0.4377
     0.1242   0.1642   0.2283   0.2979   0.3969   0.4259   0.8290   0.8669

          k = 0.2500 0.0000 0.3610 ( 23987 PWs)   bands (ev):

   -23.7135 -23.7085  -9.2433  -9.2238  -9.1533  -9.0811  -9.0073  -8.9669
    -5.2761  -4.6848  -4.4931  -4.4818  -1.2396  -0.9880  -0.8435  -0.2960
    -0.2840   0.0028   0.2347   0.3735   0.5184   0.6491   0.8492   0.8779

[...]
        18        H      tau(  18) = (   0.8605713   0.6577904   0.4988098  )
        19        H      tau(  19) = (   0.3611428   0.8807418   0.1522281  )
        20        H      tau(  20) = (   0.6376508   0.1449485   0.1522281  )
        21        H      tau(  21) = (   0.8605395   0.6577937   0.1943468  )
        22        H      tau(  22) = (   0.1382540   0.3678966   0.1943468  )

     number of k points=    27
                       cart. coord. in units 2pi/alat
        k(    1) = (   0.0000000   0.0000000   0.0000000), wk =   0.0312500
        k(    2) = (   0.0000000   0.0000000   0.3606724), wk =   0.0625000
        k(    3) = (   0.0000000   0.0000000  -0.7213448), wk =   0.0312500
        k(    4) = (   0.0000000   0.2437383   0.0000000), wk =   0.0625000
        k(    5) = (   0.0000000   0.2437383   0.3606724), wk =   0.1250000
        k(    6) = (   0.0000000   0.2437383  -0.7213448), wk =   0.0625000
        k(    7) = (   0.0000000  -0.4874766   0.0000000), wk =   0.0312500
        k(    8) = (   0.0000000  -0.4874766   0.3606724), wk =   0.0625000
        k(    9) = (   0.0000000  -0.4874766  -0.7213448), wk =   0.0312500
        k(   10) = (   0.2503020   0.0000000   0.0000000), wk =   0.0625000
        k(   11) = (   0.2503020   0.0000000   0.3606724), wk =   0.1250000
        k(   12) = (   0.2503020   0.0000000  -0.7213448), wk =   0.0625000
        k(   13) = (   0.2503020   0.2437383   0.0000000), wk =   0.1250000
        k(   14) = (   0.2503020   0.2437383   0.3606724), wk =   0.2500000
        k(   15) = (   0.2503020   0.2437383  -0.7213448), wk =   0.1250000
        k(   16) = (   0.2503020  -0.4874766   0.0000000), wk =   0.0625000
        k(   17) = (   0.2503020  -0.4874766   0.3606724), wk =   0.1250000
        k(   18) = (   0.2503020  -0.4874766  -0.7213448), wk =   0.0625000
        k(   19) = (  -0.5006040   0.0000000   0.0000000), wk =   0.0312500
        k(   20) = (  -0.5006040   0.0000000   0.3606724), wk =   0.0625000
        k(   21) = (  -0.5006040   0.0000000  -0.7213448), wk =   0.0312500
        k(   22) = (  -0.5006040   0.2437383   0.0000000), wk =   0.0625000
        k(   23) = (  -0.5006040   0.2437383   0.3606724), wk =   0.1250000
        k(   24) = (  -0.5006040   0.2437383  -0.7213448), wk =   0.0625000
        k(   25) = (  -0.5006040  -0.4874766   0.0000000), wk =   0.0312500
        k(   26) = (  -0.5006040  -0.4874766   0.3606724), wk =   0.0625000
        k(   27) = (  -0.5006040  -0.4874766  -0.7213448), wk =   0.0312500

     Dense  grid:   542467 G-vectors     FFT dimensions: ( 120, 120,  80)

     Smooth grid:   191793 G-vectors     FFT dimensions: (  90,  90,  60)

     Estimated max dynamical RAM per process >      91.05 MB

     Estimated total dynamical RAM >       2.13 GB

     Initial potential from superposition of free atoms

     starting charge      47.9682, renormalised to      48.0000
     Starting wfcs are   42 randomized atomic wfcs

     total cpu time spent up to now is     5340.7 secs

     Self-consistent Calculation

     iteration #  1     ecut=   100.00 Ry     beta= 0.70
     Davidson diagonalization with overlap
     ethr =  1.00E-06,  avg # of iterations = 11.0

     total cpu time spent up to now is     5386.6 secs

     total energy              =    -155.85182614 Ry
     estimated scf accuracy    <       2.21589820 Ry

     iteration #  2     ecut=   100.00 Ry     beta= 0.70
     Davidson diagonalization with overlap
     ethr =  4.62E-03,  avg # of iterations =  2.0

     total cpu time spent up to now is     5401.3 secs

     total energy              =    -156.40095430 Ry
     estimated scf accuracy    <       0.45476737 Ry

     iteration #  3     ecut=   100.00 Ry     beta= 0.70
     Davidson diagonalization with overlap
     ethr =  9.47E-04,  avg # of iterations =  2.0

     total cpu time spent up to now is     5416.1 secs

     total energy              =    -156.47209982 Ry
     estimated scf accuracy    <       0.00557862 Ry

     iteration #  4     ecut=   100.00 Ry     beta= 0.70
     Davidson diagonalization with overlap
     ethr =  1.16E-05,  avg # of iterations =  3.3

     total cpu time spent up to now is     5434.4 secs

     total energy              =    -156.47411014 Ry
     estimated scf accuracy    <       0.00216404 Ry

     iteration #  5     ecut=   100.00 Ry     beta= 0.70
     Davidson diagonalization with overlap
     ethr =  4.51E-06,  avg # of iterations =  3.6

     total cpu time spent up to now is     5450.1 secs

     total energy              =    -156.47474060 Ry
     estimated scf accuracy    <       0.00004951 Ry

     iteration #  6     ecut=   100.00 Ry     beta= 0.70
     Davidson diagonalization with overlap
     ethr =  1.03E-07,  avg # of iterations =  5.9

     total cpu time spent up to now is     5473.8 secs

     total energy              =    -156.47483067 Ry
     estimated scf accuracy    <       0.00001426 Ry

     iteration #  7     ecut=   100.00 Ry     beta= 0.70
     Davidson diagonalization with overlap
     ethr =  2.97E-08,  avg # of iterations =  3.2

     total cpu time spent up to now is     5489.5 secs

     total energy              =    -156.47483452 Ry
     estimated scf accuracy    <       0.00000007 Ry

     iteration #  8     ecut=   100.00 Ry     beta= 0.70
     Davidson diagonalization with overlap
     ethr =  1.49E-10,  avg # of iterations =  8.0

     total cpu time spent up to now is     5520.7 secs

     total energy              =    -156.47483480 Ry
     estimated scf accuracy    <       0.00000008 Ry

     iteration #  9     ecut=   100.00 Ry     beta= 0.70
     Davidson diagonalization with overlap
     ethr =  1.49E-10,  avg # of iterations =  2.0

     total cpu time spent up to now is     5535.5 secs

     total energy              =    -156.47483481 Ry
     estimated scf accuracy    <          3.6E-09 Ry

     iteration # 10     ecut=   100.00 Ry     beta= 0.70
     Davidson diagonalization with overlap
     ethr =  7.41E-12,  avg # of iterations =  4.6

     total cpu time spent up to now is     5553.7 secs

     total energy              =    -156.47483481 Ry
     estimated scf accuracy    <          1.3E-10 Ry

     iteration # 11     ecut=   100.00 Ry     beta= 0.70
     Davidson diagonalization with overlap
     ethr =  2.66E-13,  avg # of iterations =  6.4

     total cpu time spent up to now is     5580.1 secs

     total energy              =    -156.47483481 Ry
     estimated scf accuracy    <          2.7E-11 Ry

     iteration # 12     ecut=   100.00 Ry     beta= 0.70
     Davidson diagonalization with overlap
     ethr =  1.00E-13,  avg # of iterations =  2.5

     total cpu time spent up to now is     5596.0 secs

     total energy              =    -156.47483481 Ry
     estimated scf accuracy    <          1.1E-12 Ry

     iteration # 13     ecut=   100.00 Ry     beta= 0.70
     Davidson diagonalization with overlap
     ethr =  1.00E-13,  avg # of iterations =  1.0

     total cpu time spent up to now is     5607.7 secs

     End of self-consistent calculation

          k = 0.0000 0.0000 0.0000 ( 23963 PWs)   bands (ev):

   -23.7276 -23.7177  -9.3071  -9.2111  -9.0010  -8.9593  -8.9314  -8.8625
    -5.9609  -4.9830  -4.2578  -4.1080  -1.6612  -0.7364  -0.6513  -0.3067
     0.0870   0.1158   0.1516   0.2830   0.4389   0.8692   0.8841   0.9275

          k = 0.0000 0.0000 0.3607 ( 23962 PWs)   bands (ev):

   -23.7192 -23.7122  -9.2048  -9.2031  -9.1775  -9.1396  -8.9816  -8.9588
    -5.4338  -4.7070  -4.4432  -4.3500  -1.2668  -0.9994  -0.5348  -0.4933
    -0.3428  -0.2168   0.1620   0.4606   0.6546   0.7042   0.7845   0.9349

          k = 0.0000 0.0000-0.7213 ( 23984 PWs)   bands (ev):

   -23.7087 -23.7087  -9.4359  -9.4359  -9.0494  -9.0494  -8.9913  -8.9913
    -4.6948  -4.6948  -4.6136  -4.6136  -1.0290  -1.0290  -1.0060  -1.0059
     0.0655   0.0655   0.1605   0.1606   0.7532   0.7532   0.7616   0.7617

          k = 0.0000 0.2437 0.0000 ( 23971 PWs)   bands (ev):

   -23.7261 -23.7191  -9.2759  -9.1779  -9.0608  -8.9980  -8.9211  -8.8723
    -5.7496  -4.8842  -4.5639  -4.2478  -1.2799  -0.8413  -0.8131  -0.0171
    -0.0012   0.0227   0.3310   0.4562   0.5319   0.5401   0.7785   0.8549

          k = 0.0000 0.2437 0.3607 ( 23972 PWs)   bands (ev):

   -23.7181 -23.7132  -9.2539  -9.2115  -9.1235  -9.1088  -8.9920  -8.9829
    -5.3248  -4.7860  -4.4857  -4.3913  -1.0710  -1.0246  -0.8304  -0.2455
    -0.1965  -0.0051   0.0105   0.5163   0.5867   0.6459   0.7485   0.8078

          k = 0.0000 0.2437-0.7213 ( 23966 PWs)   bands (ev):

   -23.7086 -23.7086  -9.4508  -9.4508  -9.0288  -9.0288  -8.9903  -8.9903
    -4.9990  -4.9990  -4.2972  -4.2972  -1.1466  -1.1466  -0.8295  -0.8293
     0.1445   0.1446   0.1995   0.1997   0.5667   0.5668   0.7602   0.7602

          k = 0.0000-0.4875 0.0000 ( 23954 PWs)   bands (ev):

   -23.7226 -23.7226  -9.1863  -9.1863  -9.0863  -9.0863  -8.8965  -8.8965
    -5.2235  -5.2235  -4.5556  -4.5556  -0.9645  -0.9645  -0.3293  -0.3293
    -0.0862  -0.0862   0.4452   0.4452   0.5837   0.5837   0.7063   0.7063

          k = 0.0000-0.4875 0.3607 ( 23932 PWs)   bands (ev):

   -23.7156 -23.7156  -9.2533  -9.2533  -9.0608  -9.0608  -9.0258  -9.0258
    -5.0538  -5.0538  -4.4656  -4.4656  -1.0087  -1.0087  -0.5947  -0.5947
     0.0569   0.0569   0.3382   0.3382   0.5047   0.5047   0.7218   0.7218

          k = 0.0000-0.4875-0.7213 ( 23920 PWs)   bands (ev):

   -23.7086 -23.7086  -9.4644  -9.4644  -9.0114  -9.0114  -8.9872  -8.9872
    -5.1379  -5.1379  -4.1458  -4.1458  -1.2406  -1.2406  -0.5695  -0.5695
     0.0608   0.0608   0.2726   0.2726   0.3696   0.3696   0.7958   0.7958

          k = 0.2503 0.0000 0.0000 ( 24000 PWs)   bands (ev):

   -23.7261 -23.7191  -9.2650  -9.1917  -9.0487  -9.0175  -8.9211  -8.8723
    -5.7582  -5.0095  -4.3026  -4.2742  -1.4642  -0.5817  -0.5646  -0.4355
     0.1253   0.1680   0.2350   0.3099   0.3996   0.4250   0.8326   0.8705

          k = 0.2503 0.0000 0.3607 ( 23984 PWs)   bands (ev):

   -23.7181 -23.7132  -9.2441  -9.2248  -9.1549  -9.0826  -9.0098  -8.9697
    -5.2767  -4.6865  -4.4877  -4.4793  -1.2373  -0.9846  -0.8365  -0.2962
    -0.2841   0.0063   0.2410   0.3779   0.5211   0.6513   0.8555   0.8843

          k = 0.2503 0.0000-0.7213 ( 24002 PWs)   bands (ev):

   -23.7086 -23.7086  -9.4561  -9.4561  -9.0341  -9.0341  -8.9877  -8.9877
    -4.7845  -4.7845  -4.4901  -4.4901  -1.5113  -1.5113  -0.5496  -0.5496
     0.0603   0.0603   0.4156   0.4157   0.5456   0.5456   0.7960   0.7960

          k = 0.2503 0.2437 0.0000 ( 23940 PWs)   bands (ev):

   -23.7251 -23.7201  -9.2957  -9.1657  -9.1068  -8.9663  -8.9136  -8.8791
    -5.6096  -4.9626  -4.5639  -4.3082  -1.1605  -0.8152  -0.5989  -0.1267
    -0.0574  -0.0072   0.3137   0.4645   0.4820   0.5613   0.6255   0.7835

          k = 0.2503 0.2437 0.3607 ( 23990 PWs)   bands (ev):

   -23.7174 -23.7139  -9.2470  -9.2031  -9.1966  -9.0603  -9.0224  -8.9621
    -5.1853  -4.7296  -4.5758  -4.4727  -1.1992  -0.9503  -0.8496  -0.2798
    -0.1191   0.0647   0.1676   0.3950   0.5012   0.6154   0.7722   0.8605

          k = 0.2503 0.2437-0.7213 ( 24008 PWs)   bands (ev):

   -23.7086 -23.7086  -9.4636  -9.4378  -9.0583  -9.0134  -8.9962  -8.9880
    -5.0095  -4.8152  -4.4509  -4.2508  -1.4847  -1.4021  -0.6191  -0.5076
     0.0069   0.0128   0.3810   0.4490   0.5579   0.6037   0.7395   0.7746

          k = 0.2503-0.4875 0.0000 ( 23942 PWs)   bands (ev):

   -23.7226 -23.7226  -9.2687  -9.2687  -9.0043  -9.0043  -8.8960  -8.8960
    -5.2294  -5.2294  -4.5376  -4.5376  -0.8667  -0.8667  -0.3379  -0.3379
    -0.1268  -0.1268   0.3713   0.3713   0.6241   0.6241   0.6374   0.6374

          k = 0.2503-0.4875 0.3607 ( 23986 PWs)   bands (ev):

   -23.7156 -23.7156  -9.2410  -9.2410  -9.1301  -9.1301  -8.9774  -8.9774
    -4.9582  -4.9582  -4.5395  -4.5395  -1.1049  -1.1049  -0.5079  -0.5079
     0.0266   0.0266   0.3607   0.3607   0.5101   0.5101   0.7438   0.7438

          k = 0.2503-0.4875-0.7213 ( 23960 PWs)   bands (ev):

   -23.7086 -23.7086  -9.4465  -9.4465  -9.0385  -9.0385  -8.9946  -8.9946
    -5.0203  -5.0203  -4.2312  -4.2312  -1.3675  -1.3675  -0.6262  -0.6262
     0.1298   0.1298   0.2601   0.2601   0.5984   0.5984   0.7594   0.7594

          k =-0.5006 0.0000 0.0000 ( 23984 PWs)   bands (ev):

   -23.7226 -23.7226  -9.1608  -9.1608  -9.1221  -9.1221  -8.8965  -8.8965
    -5.3069  -5.3069  -4.3783  -4.3783  -1.0272  -1.0272  -0.2102  -0.2102
     0.1651   0.1651   0.1893   0.1893   0.2827   0.2827   0.7172   0.7172

          k =-0.5006 0.0000 0.3607 ( 23984 PWs)   bands (ev):

   -23.7156 -23.7156  -9.2580  -9.2580  -9.0855  -9.0855  -9.0094  -9.0094
    -4.9093  -4.9093  -4.5541  -4.5541  -1.1611  -1.1611  -0.5758  -0.5758
     0.0276   0.0276   0.2280   0.2280   0.6170   0.6170   0.8422   0.8422

          k =-0.5006 0.0000-0.7213 ( 24000 PWs)   bands (ev):

   -23.7086 -23.7086  -9.4748  -9.4748  -9.0215  -9.0215  -8.9828  -8.9828
    -4.8313  -4.8313  -4.4068  -4.4068  -1.7320  -1.7320  -0.2377  -0.2377
     0.0562   0.0562   0.2351   0.2351   0.7404   0.7404   0.7528   0.7528

          k =-0.5006 0.2437 0.0000 ( 23988 PWs)   bands (ev):

   -23.7226 -23.7226  -9.2671  -9.2671  -9.0110  -9.0110  -8.8960  -8.8960
    -5.2745  -5.2745  -4.4457  -4.4457  -0.9127  -0.9127  -0.2123  -0.2123
    -0.0571  -0.0571   0.1425   0.1425   0.5293   0.5293   0.6944   0.6944

          k =-0.5006 0.2437 0.3607 ( 23996 PWs)   bands (ev):

   -23.7156 -23.7156  -9.2441  -9.2441  -9.1347  -9.1347  -8.9762  -8.9762
    -4.8647  -4.8647  -4.6047  -4.6047  -1.1663  -1.1663  -0.5415  -0.5415
     0.0594   0.0594   0.2779   0.2779   0.6067   0.6067   0.7696   0.7696

          k =-0.5006 0.2437-0.7213 ( 24008 PWs)   bands (ev):

   -23.7086 -23.7086  -9.4522  -9.4522  -9.0414  -9.0414  -8.9939  -8.9939
    -4.8494  -4.8494  -4.3791  -4.3791  -1.6239  -1.6239  -0.4539  -0.4539
     0.1006   0.1006   0.3125   0.3125   0.6715   0.6715   0.8132   0.8132

          k =-0.5006-0.4875 0.0000 ( 23980 PWs)   bands (ev):

   -23.7226 -23.7226  -9.3169  -9.3169  -8.9564  -8.9564  -8.8956  -8.8956
    -5.2371  -5.2371  -4.5166  -4.5166  -0.7483  -0.7483  -0.3693  -0.3693
    -0.1634  -0.1634   0.3376   0.3376   0.5287   0.5287   0.6604   0.6604

          k =-0.5006-0.4875 0.3607 ( 24012 PWs)   bands (ev):

   -23.7156 -23.7156  -9.2173  -9.2173  -9.1830  -9.1830  -8.9569  -8.9569
    -4.7903  -4.7903  -4.6848  -4.6848  -1.1537  -1.1537  -0.5794  -0.5794
     0.2250   0.2250   0.3557   0.3557   0.5149   0.5149   0.6700   0.6700

          k =-0.5006-0.4875-0.7213 ( 24008 PWs)   bands (ev):

   -23.7086 -23.7086  -9.4262  -9.4262  -9.0681  -9.0681  -9.0015  -9.0015
    -4.8664  -4.8664  -4.3522  -4.3522  -1.4592  -1.4592  -0.7580  -0.7580
     0.3443   0.3443   0.3793   0.3793   0.5374   0.5374   0.7749   0.7749

     highest occupied level (ev):     0.9349

!    total energy              =    -156.47483481 Ry
     estimated scf accuracy    <          4.0E-13 Ry

     The total energy is the sum of the following terms:
     one-electron contribution =     -20.95912268 Ry
     hartree contribution      =      25.09266337 Ry
     xc contribution           =     -49.15360991 Ry
     ewald contribution        =    -111.45476558 Ry

     convergence has been achieved in  13 iterations

     Forces acting on atoms (cartesian axes, Ry/au):

     atom    1 type  2   force =     0.00000000    0.00000000    0.00000882
     atom    2 type  2   force =     0.00000000    0.00000000   -0.00000882
     atom    3 type  1   force =     0.00000320   -0.00000034    0.00000091
     atom    4 type  1   force =    -0.00000320    0.00000034    0.00000091
     atom    5 type  1   force =     0.00000320    0.00000034   -0.00000091
     atom    6 type  1   force =    -0.00000320   -0.00000034   -0.00000091
     atom    7 type  3   force =     0.00000708    0.00000649   -0.00000302
     atom    8 type  3   force =    -0.00000708   -0.00000649   -0.00000302
     atom    9 type  3   force =     0.00000708   -0.00000649    0.00000302
     atom   10 type  3   force =    -0.00000708    0.00000649    0.00000302
     atom   11 type  3   force =     0.00000127    0.00000141   -0.00000201
     atom   12 type  3   force =    -0.00000127   -0.00000141   -0.00000201
     atom   13 type  3   force =     0.00000127   -0.00000141    0.00000201
     atom   14 type  3   force =    -0.00000127    0.00000141    0.00000201
     atom   15 type  3   force =    -0.00000002    0.00000306    0.00000683
     atom   16 type  3   force =     0.00000002   -0.00000306    0.00000683
     atom   17 type  3   force =    -0.00000002   -0.00000306   -0.00000683
     atom   18 type  3   force =     0.00000002    0.00000306   -0.00000683
     atom   19 type  3   force =     0.00000870   -0.00000062   -0.00000528
     atom   20 type  3   force =    -0.00000870    0.00000062   -0.00000528
     atom   21 type  3   force =     0.00000870    0.00000062    0.00000528
     atom   22 type  3   force =    -0.00000870   -0.00000062    0.00000528

     Total force =     0.000036     Total SCF correction =     0.000000


     Computing stress (Cartesian axis) and pressure

          total   stress  (Ry/bohr**3)                   (kbar)     P=        0.88
   0.00000594   0.00000000   0.00000000            0.87        0.00        0.00
   0.00000000   0.00000586   0.00000000            0.00        0.86        0.00
   0.00000000   0.00000000   0.00000613            0.00        0.00        0.90


     Writing all to output data dir ./pwscf.save/ :
     XML data file, charge density, pseudopotentials, collected wavefunctions

     init_run     :     18.17s CPU     19.74s WALL (       2 calls)
     electrons    :   4402.14s CPU   4440.53s WALL (      39 calls)
     update_pot   :      8.57s CPU      9.62s WALL (      37 calls)
     forces       :    121.00s CPU    122.32s WALL (      39 calls)
     stress       :   1032.23s CPU   1034.90s WALL (      39 calls)

     Called by init_run:
     wfcinit      :     14.40s CPU     14.53s WALL (       2 calls)
     potinit      :      0.76s CPU      1.21s WALL (       2 calls)
     hinit0       :      1.30s CPU      2.18s WALL (       2 calls)

     Called by electrons:
     c_bands      :   3846.17s CPU   3874.05s WALL (     273 calls)
     sum_band     :    478.03s CPU    484.12s WALL (     273 calls)
     v_of_rho     :     33.87s CPU     35.64s WALL (     275 calls)
     newd         :     47.02s CPU     48.04s WALL (     275 calls)
     mix_rho      :      3.53s CPU      3.81s WALL (     273 calls)

     Called by c_bands:
     init_us_2    :     99.05s CPU    100.21s WALL (   16902 calls)
     cegterg      :   3386.06s CPU   3412.42s WALL (    7371 calls)

     Called by *egterg:
     cdiaghg      :     47.43s CPU     47.76s WALL (   26379 calls)
     h_psi        :   2410.97s CPU   2432.89s WALL (   28431 calls)
     s_psi        :    455.08s CPU    456.94s WALL (   28431 calls)
     g_psi        :      8.62s CPU      8.66s WALL (   21006 calls)

     Called by h_psi:
     h_psi:calbec :    391.22s CPU    393.35s WALL (   28431 calls)
     vloc_psi     :   1554.40s CPU   1572.47s WALL (   28431 calls)
     add_vuspsi   :    457.50s CPU    459.33s WALL (   28431 calls)

     General routines
     calbec       :    794.35s CPU    797.74s WALL (   41067 calls)
     fft          :     28.15s CPU     32.04s WALL (    4546 calls)
     ffts         :      1.73s CPU      2.24s WALL (     548 calls)
     fftw         :   1574.74s CPU   1592.65s WALL ( 1236048 calls)
     interpolate  :      2.75s CPU      3.40s WALL (     275 calls)

     Parallel routines

     PWSCF        :      1h33m CPU      1h33m WALL


   This run was terminated on:  17: 4:38  11Jul2024            

=------------------------------------------------------------------------------=
   JOB DONE.
=------------------------------------------------------------------------------=
