
     Program PWSCF v.7.3.1 starts on 11Jul2024 at 15:30:39 

     This program is part of the open-source Quantum ESPRESSO suite
     for quantum simulation of materials; please cite
         "P. Giannozzi et al., J. Phys.:Condens. Matter 21 395502 (2009);
         "P. Giannozzi et al., J. Phys.:Condens. Matter 29 465901 (2017);
         "P. Giannozzi et al., J. Chem. Phys. 152 154105 (2020);
          URL http://www.quantum-espresso.org", 
     in publications or presentations arising from this work. More details at
     http://www.quantum-espresso.org/quote

     Parallel version (MPI), running on    24 processors

     MPI processes distributed on     1 nodes
     95240 MiB available memory on the printing compute node when the environment starts

     Waiting for input...
     Reading input from standard input

     Current dimensions of program PWSCF are:
     Max number of different atomic species (ntypx) = 10
     Max number of k-points (npk) =  40000
     Max angular momentum in pseudopotentials (lmaxx) =  4

     R & G space division:  proc/nbgrp/npool/nimage =      24
     Subspace diagonalization in iterative solution of the eigenvalue problem:
     a serial algorithm will be used


     Parallelization info
     --------------------
     sticks:   dense  smooth     PW     G-vecs:    dense   smooth      PW
     Min         420     210     57                21698     7668    1113
     Max         421     211     58                21699     7672    1116
     Sum       10085    5043   1391               520757   184085   26739

     Using Slab Decomposition


     Title: 
     volume variation                                                           


     bravais-lattice index     =            8
     lattice parameter (alat)  =      12.4270  a.u.
     unit-cell volume          =    1362.7566 (a.u.)^3
     number of atoms/cell      =           22
     number of atomic types    =            3
     number of electrons       =        48.00
     number of Kohn-Sham states=           24
     kinetic-energy cutoff     =     100.0000  Ry
     charge density cutoff     =     800.0000  Ry
     scf convergence threshold =      1.0E-10
     mixing beta               =       0.7000
     number of iterations used =            8  plain     mixing
     energy convergence thresh.=      1.0E-05
     force convergence thresh. =      1.0E-05
     press convergence thresh. =      5.0E-01
     Exchange-correlation= PBESOL
                           (   1   4  10   8   0   0   0)
     nstep                     =          100


     celldm(1)=  12.427003  celldm(2)=   1.025571  celldm(3)=   0.692394
     celldm(4)=   0.000000  celldm(5)=   0.000000  celldm(6)=   0.000000

     crystal axes: (cart. coord. in units of alat)
               a(1) = (   1.000000   0.000000   0.000000 )  
               a(2) = (   0.000000   1.025571   0.000000 )  
               a(3) = (   0.000000   0.000000   0.692394 )  

     reciprocal axes: (cart. coord. in units 2 pi/alat)
               b(1) = (  1.000000  0.000000  0.000000 )  
               b(2) = (  0.000000  0.975067  0.000000 )  
               b(3) = (  0.000000  0.000000  1.444264 )  


     PseudoPot. # 1 for B  read from file:
     /home/mehlhorn/pseudos/b_pbesol_v1.4.uspp.F.UPF
     MD5 check sum: 369b69bef2c3aeed4453bd8b804fd6a8
     Pseudo is Ultrasoft + core correction, Zval =  3.0
     Generated by new atomic code, or converted to UPF format
     Using radial grid of  781 points,  4 beta functions with: 
                l(1) =   0
                l(2) =   0
                l(3) =   1
                l(4) =   1
     Q(r) pseudized with  8 coefficients,  rinner =    1.100   1.100   1.100


     PseudoPot. # 2 for Ba read from file:
     /home/mehlhorn/pseudos/Ba.nc.z_10.oncvpsp4.dojo.v4-sp.upf
     MD5 check sum: c10ed334bb677c0554edec7181ce9143
     Pseudo is Norm-conserving + core correction, Zval = 10.0
     Generated using ONCVPSP code by D. R. Hamann
     Using radial grid of 1938 points,  8 beta functions with: 
                l(1) =   0
                l(2) =   0
                l(3) =   1
                l(4) =   1
                l(5) =   2
                l(6) =   2
                l(7) =   3
                l(8) =   3

     PseudoPot. # 3 for H  read from file:
     /home/mehlhorn/pseudos/H_ONCV_PBEsol-1.0.upf
     MD5 check sum: 398ef8f67c0a7342c05c87c5e19ea467
     Pseudo is Norm-conserving, Zval =  1.0
     Generated using ONCVPSP code by D. R. Hamann
     Using radial grid of 1180 points,  2 beta functions with: 
                l(1) =   0
                l(2) =   0

     atomic species   valence    mass     pseudopotential
     B                 3.00    10.81100     B ( 1.00)
     Ba               10.00   137.32700     Ba( 1.00)
     H                 1.00     1.00794     H ( 1.00)

      4 Sym. Ops. (no inversion) found ( 2 have fractional translation)



   Cartesian axes

     site n.     atom                  positions (alat units)
         1        Ba     tau(   1) = (   0.5000000   0.5127855   0.3462657  )
         2        Ba     tau(   2) = (   0.0000000   0.0000000   0.6923255  )
         3        B      tau(   3) = (   0.6102570   0.2453190   0.0000455  )
         4        B      tau(   4) = (   0.3897430   0.7802519   0.0000455  )
         5        B      tau(   5) = (   0.1102570   0.2674665   0.3461516  )
         6        B      tau(   6) = (   0.8897430   0.7581045   0.3461516  )
         7        H      tau(   7) = (   0.4340973   0.2996264   0.0001599  )
         8        H      tau(   8) = (   0.5659027   0.7259445   0.0001599  )
         9        H      tau(   9) = (   0.9340973   0.2131590   0.3460372  )
        10        H      tau(  10) = (   0.0659027   0.8124119   0.3460372  )
        11        H      tau(  11) = (   0.7220603   0.3933629  -0.0000058  )
        12        H      tau(  12) = (   0.2779397   0.6322081  -0.0000058  )
        13        H      tau(  13) = (   0.2220603   0.1194226   0.3462029  )
        14        H      tau(  14) = (   0.7779397   0.9061483   0.3462029  )
        15        H      tau(  15) = (   0.6392499   0.1457279   0.5404125  )
        16        H      tau(  16) = (   0.3607501   0.8798430   0.5404125  )
        17        H      tau(  17) = (   0.1392499   0.3670576   0.4981787  )
        18        H      tau(  18) = (   0.8607501   0.6585133   0.4981787  )
        19        H      tau(  19) = (   0.3605328   0.8798946   0.1519977  )
        20        H      tau(  20) = (   0.6394672   0.1456763   0.1519977  )
        21        H      tau(  21) = (   0.8605328   0.6584617   0.1941994  )
        22        H      tau(  22) = (   0.1394672   0.3671092   0.1941994  )

     number of k points=    27
                       cart. coord. in units 2pi/alat
        k(    1) = (   0.0000000   0.0000000   0.0000000), wk =   0.0312500
        k(    2) = (   0.0000000   0.0000000   0.3610660), wk =   0.0625000
        k(    3) = (   0.0000000   0.0000000  -0.7221320), wk =   0.0312500
        k(    4) = (   0.0000000   0.2437667   0.0000000), wk =   0.0625000
        k(    5) = (   0.0000000   0.2437667   0.3610660), wk =   0.1250000
        k(    6) = (   0.0000000   0.2437667  -0.7221320), wk =   0.0625000
        k(    7) = (   0.0000000  -0.4875333   0.0000000), wk =   0.0312500
        k(    8) = (   0.0000000  -0.4875333   0.3610660), wk =   0.0625000
        k(    9) = (   0.0000000  -0.4875333  -0.7221320), wk =   0.0312500
        k(   10) = (   0.2500000   0.0000000   0.0000000), wk =   0.0625000
        k(   11) = (   0.2500000   0.0000000   0.3610660), wk =   0.1250000
        k(   12) = (   0.2500000   0.0000000  -0.7221320), wk =   0.0625000
        k(   13) = (   0.2500000   0.2437667   0.0000000), wk =   0.1250000
        k(   14) = (   0.2500000   0.2437667   0.3610660), wk =   0.2500000
        k(   15) = (   0.2500000   0.2437667  -0.7221320), wk =   0.1250000
        k(   16) = (   0.2500000  -0.4875333   0.0000000), wk =   0.0625000
        k(   17) = (   0.2500000  -0.4875333   0.3610660), wk =   0.1250000
        k(   18) = (   0.2500000  -0.4875333  -0.7221320), wk =   0.0625000
        k(   19) = (  -0.5000000   0.0000000   0.0000000), wk =   0.0312500
        k(   20) = (  -0.5000000   0.0000000   0.3610660), wk =   0.0625000
        k(   21) = (  -0.5000000   0.0000000  -0.7221320), wk =   0.0312500
        k(   22) = (  -0.5000000   0.2437667   0.0000000), wk =   0.0625000
        k(   23) = (  -0.5000000   0.2437667   0.3610660), wk =   0.1250000
        k(   24) = (  -0.5000000   0.2437667  -0.7221320), wk =   0.0625000
        k(   25) = (  -0.5000000  -0.4875333   0.0000000), wk =   0.0312500
        k(   26) = (  -0.5000000  -0.4875333   0.3610660), wk =   0.0625000
        k(   27) = (  -0.5000000  -0.4875333  -0.7221320), wk =   0.0312500

     Dense  grid:   520757 G-vectors     FFT dimensions: ( 120, 120,  80)

     Smooth grid:   184085 G-vectors     FFT dimensions: (  80,  90,  60)

     Estimated max dynamical RAM per process >      88.36 MB

     Estimated total dynamical RAM >       2.07 GB

     Initial potential from superposition of free atoms

     starting charge      47.9682, renormalised to      48.0000
     Starting wfcs are   42 randomized atomic wfcs

     total cpu time spent up to now is       11.9 secs

     Self-consistent Calculation

     iteration #  1     ecut=   100.00 Ry     beta= 0.70
     Davidson diagonalization with overlap
     ethr =  1.00E-02,  avg # of iterations =  2.0

     total cpu time spent up to now is       26.8 secs

     total energy              =    -155.89248322 Ry
     estimated scf accuracy    <       2.19525611 Ry

     iteration #  2     ecut=   100.00 Ry     beta= 0.70
     Davidson diagonalization with overlap
     ethr =  4.57E-03,  avg # of iterations =  2.0

     total cpu time spent up to now is       41.0 secs

     total energy              =    -156.40200792 Ry
     estimated scf accuracy    <       0.37592408 Ry

     iteration #  3     ecut=   100.00 Ry     beta= 0.70
     Davidson diagonalization with overlap
     ethr =  7.83E-04,  avg # of iterations =  2.0

     total cpu time spent up to now is       55.3 secs

     total energy              =    -156.46447121 Ry
     estimated scf accuracy    <       0.00504505 Ry

     iteration #  4     ecut=   100.00 Ry     beta= 0.70
     Davidson diagonalization with overlap
     ethr =  1.05E-05,  avg # of iterations =  5.1

     total cpu time spent up to now is       75.8 secs

     total energy              =    -156.46777889 Ry
     estimated scf accuracy    <       0.00162759 Ry

     iteration #  5     ecut=   100.00 Ry     beta= 0.70
     Davidson diagonalization with overlap
     ethr =  3.39E-06,  avg # of iterations =  3.1

     total cpu time spent up to now is       90.6 secs

     total energy              =    -156.46834729 Ry
     estimated scf accuracy    <       0.00015857 Ry

     iteration #  6     ecut=   100.00 Ry     beta= 0.70
     Davidson diagonalization with overlap
     ethr =  3.30E-07,  avg # of iterations =  4.0

     total cpu time spent up to now is      107.0 secs

     total energy              =    -156.46840900 Ry
     estimated scf accuracy    <       0.00000105 Ry

     iteration #  7     ecut=   100.00 Ry     beta= 0.70
     Davidson diagonalization with overlap
     ethr =  2.19E-09,  avg # of iterations =  9.0

     total cpu time spent up to now is      140.4 secs

     total energy              =    -156.46841673 Ry
     estimated scf accuracy    <       0.00000094 Ry

     iteration #  8     ecut=   100.00 Ry     beta= 0.70
     Davidson diagonalization with overlap
     ethr =  1.96E-09,  avg # of iterations =  2.0

     total cpu time spent up to now is      154.6 secs

     total energy              =    -156.46841700 Ry
     estimated scf accuracy    <       0.00000008 Ry

     iteration #  9     ecut=   100.00 Ry     beta= 0.70
     Davidson diagonalization with overlap
     ethr =  1.74E-10,  avg # of iterations =  4.3

     total cpu time spent up to now is      170.6 secs

     total energy              =    -156.46841702 Ry
     estimated scf accuracy    <          3.2E-09 Ry

     iteration # 10     ecut=   100.00 Ry     beta= 0.70
     Davidson diagonalization with overlap
     ethr =  6.62E-12,  avg # of iterations =  5.5

     total cpu time spent up to now is      190.5 secs

     total energy              =    -156.46841702 Ry
     estimated scf accuracy    <          1.8E-09 Ry

     iteration # 11     ecut=   100.00 Ry     beta= 0.70
     Davidson diagonalization with overlap
     ethr =  3.80E-12,  avg # of iterations =  2.1

     total cpu time spent up to now is      204.7 secs

     End of self-consistent calculation

          k = 0.0000 0.0000 0.0000 ( 23005 PWs)   bands (ev):

   -23.3098 -23.2971  -8.9950  -8.8789  -8.6222  -8.5701  -8.5451  -8.4617
    -5.8454  -4.8358  -3.9779  -3.8521  -1.5161  -0.5759  -0.4188  -0.1277
     0.2863   0.3301   0.4058   0.4890   0.6752   1.1192   1.1226   1.1676

          k = 0.0000 0.0000 0.3611 ( 23031 PWs)   bands (ev):

   -23.2991 -23.2902  -8.8752  -8.8723  -8.8489  -8.7923  -8.5976  -8.5689
    -5.2467  -4.5047  -4.2071  -4.1361  -1.0771  -0.8100  -0.3599  -0.3171
    -0.1423  -0.0023   0.3916   0.7022   0.8810   0.9471   1.0419   1.1887

          k = 0.0000 0.0000-0.7221 ( 23048 PWs)   bands (ev):

   -23.2858 -23.2858  -9.1512  -9.1509  -8.6840  -8.6840  -8.6067  -8.6067
    -4.4538  -4.4534  -4.4315  -4.4309  -0.8467  -0.8462  -0.8388  -0.8371
     0.2620   0.2630   0.4160   0.4177   1.0038   1.0043   1.0262   1.0262

          k = 0.0000 0.2438 0.0000 ( 23067 PWs)   bands (ev):

   -23.3079 -23.2989  -8.9589  -8.8387  -8.6988  -8.6185  -8.5326  -8.4736
    -5.6092  -4.7247  -4.3131  -4.0095  -1.1078  -0.6432  -0.6269   0.1850
     0.2215   0.2243   0.5470   0.6897   0.7578   0.7772   1.0212   1.0928

          k = 0.0000 0.2438 0.3611 ( 23011 PWs)   bands (ev):

   -23.2978 -23.2915  -8.9351  -8.8885  -8.7756  -8.7545  -8.6118  -8.5990
    -5.1359  -4.5929  -4.2446  -4.1734  -0.8798  -0.8362  -0.6625  -0.0349
     0.0074   0.2031   0.2270   0.7612   0.8203   0.8905   0.9938   1.0530

          k = 0.0000 0.2438-0.7221 ( 23008 PWs)   bands (ev):

   -23.2858 -23.2858  -9.1681  -9.1679  -8.6582  -8.6581  -8.6056  -8.6056
    -4.8378  -4.8378  -4.0298  -4.0298  -0.9963  -0.9956  -0.6272  -0.6264
     0.3604   0.3606   0.4413   0.4428   0.8112   0.8114   1.0153   1.0155

          k = 0.0000-0.4875 0.0000 ( 22912 PWs)   bands (ev):

   -23.3034 -23.3034  -8.8528  -8.8528  -8.7279  -8.7279  -8.5029  -8.5029
    -5.0356  -5.0356  -4.3513  -4.3513  -0.7626  -0.7626  -0.1363  -0.1363
     0.1226   0.1226   0.6673   0.6673   0.8227   0.8227   0.9368   0.9368

          k = 0.0000-0.4875 0.3611 ( 23050 PWs)   bands (ev):

   -23.2946 -23.2946  -8.9365  -8.9365  -8.6958  -8.6958  -8.6546  -8.6546
    -4.8628  -4.8628  -4.2354  -4.2354  -0.8255  -0.8255  -0.4052  -0.4052
     0.2794   0.2794   0.5790   0.5790   0.7292   0.7292   0.9631   0.9631

          k = 0.0000-0.4875-0.7221 ( 23036 PWs)   bands (ev):

   -23.2858 -23.2858  -9.1835  -9.1835  -8.6356  -8.6356  -8.6023  -8.6023
    -4.9989  -4.9989  -3.8510  -3.8510  -1.0990  -1.0990  -0.3357  -0.3357
     0.2637   0.2637   0.5120   0.5120   0.5973   0.5973   1.0542   1.0542

          k = 0.2500 0.0000 0.0000 ( 23034 PWs)   bands (ev):

   -23.3079 -23.2989  -8.9446  -8.8569  -8.6817  -8.6451  -8.5326  -8.4737
    -5.6190  -4.8417  -4.0379  -4.0379  -1.3074  -0.3951  -0.3427  -0.2549
     0.3414   0.4021   0.4515   0.5183   0.6254   0.6535   1.0744   1.1058

          k = 0.2500 0.0000 0.3611 ( 23002 PWs)   bands (ev):

   -23.2978 -23.2914  -8.9246  -8.9040  -8.8124  -8.7235  -8.6328  -8.5837
    -5.0785  -4.4697  -4.2826  -4.2521  -1.0506  -0.8024  -0.6585  -0.0929
    -0.0824   0.2318   0.4572   0.6001   0.7644   0.8908   1.0990   1.1371

          k = 0.2500 0.0000-0.7221 ( 22982 PWs)   bands (ev):

   -23.2858 -23.2858  -9.1749  -9.1747  -8.6644  -8.6644  -8.6026  -8.6025
    -4.6153  -4.6150  -4.2312  -4.2309  -1.3621  -1.3615  -0.3354  -0.3349
     0.2702   0.2707   0.6625   0.6637   0.7890   0.7891   1.0468   1.0473

          k = 0.2500 0.2438 0.0000 ( 23016 PWs)   bands (ev):

   -23.3065 -23.3002  -8.9826  -8.8267  -8.7540  -8.5792  -8.5236  -8.4819
    -5.4647  -4.7906  -4.3348  -4.0535  -0.9897  -0.6151  -0.4143   0.0792
     0.1463   0.2075   0.5327   0.6984   0.7017   0.8036   0.8571   1.0219

          k = 0.2500 0.2438 0.3611 ( 23007 PWs)   bands (ev):

   -23.2968 -23.2923  -8.9295  -8.8762  -8.8635  -8.6955  -8.6501  -8.5734
    -4.9862  -4.5303  -4.3436  -4.2538  -1.0177  -0.7757  -0.6570  -0.0676
     0.0861   0.2824   0.3856   0.6283   0.7311   0.8504   1.0177   1.1125

          k = 0.2500 0.2438-0.7221 ( 23016 PWs)   bands (ev):

   -23.2858 -23.2858  -9.1832  -9.1526  -8.6958  -8.6384  -8.6132  -8.6029
    -4.8610  -4.6252  -4.2092  -3.9652  -1.3380  -1.2378  -0.4241  -0.2720
     0.2110   0.2186   0.6272   0.7136   0.7809   0.8473   0.9943   1.0154

          k = 0.2500-0.4875 0.0000 ( 23022 PWs)   bands (ev):

   -23.3033 -23.3033  -8.9516  -8.9516  -8.6269  -8.6269  -8.5023  -8.5023
    -5.0672  -5.0672  -4.3022  -4.3022  -0.6730  -0.6730  -0.1451  -0.1451
     0.0759   0.0759   0.5906   0.5906   0.8698   0.8698   0.8712   0.8712

          k = 0.2500-0.4875 0.3611 ( 23000 PWs)   bands (ev):

   -23.2946 -23.2946  -8.9210  -8.9210  -8.7838  -8.7838  -8.5928  -8.5928
    -4.7596  -4.7596  -4.3122  -4.3122  -0.9280  -0.9280  -0.3018  -0.3018
     0.2345   0.2345   0.5868   0.5868   0.7494   0.7494   0.9876   0.9876

          k = 0.2500-0.4875-0.7221 ( 23008 PWs)   bands (ev):

   -23.2857 -23.2857  -9.1624  -9.1624  -8.6708  -8.6708  -8.6113  -8.6113
    -4.8621  -4.8621  -3.9518  -3.9518  -1.2095  -1.2095  -0.4090  -0.4090
     0.3420   0.3420   0.4810   0.4810   0.8553   0.8553   1.0024   1.0024

          k =-0.5000 0.0000 0.0000 ( 23064 PWs)   bands (ev):

   -23.3034 -23.3034  -8.8184  -8.8184  -8.7752  -8.7752  -8.5029  -8.5029
    -5.1304  -5.1304  -4.1456  -4.1456  -0.8482  -0.8482   0.0015   0.0015
     0.3996   0.3996   0.4008   0.4008   0.4926   0.4926   0.9439   0.9439

          k =-0.5000 0.0000 0.3611 ( 23052 PWs)   bands (ev):

   -23.2946 -23.2946  -8.9433  -8.9433  -8.7255  -8.7255  -8.6343  -8.6343
    -4.6878  -4.6878  -4.3484  -4.3484  -0.9826  -0.9826  -0.3739  -0.3739
     0.2413   0.2413   0.4484   0.4484   0.8537   0.8537   1.0879   1.0879

          k =-0.5000 0.0000-0.7221 ( 22976 PWs)   bands (ev):

   -23.2857 -23.2857  -9.1968  -9.1968  -8.6479  -8.6479  -8.5971  -8.5971
    -4.6824  -4.6824  -4.1211  -4.1211  -1.5930  -1.5930   0.0156   0.0156
     0.2756   0.2756   0.4423   0.4423   0.9867   0.9867   1.0002   1.0002

          k =-0.5000 0.2438 0.0000 ( 23024 PWs)   bands (ev):

   -23.3033 -23.3033  -8.9493  -8.9493  -8.6357  -8.6357  -8.5023  -8.5023
    -5.1149  -5.1149  -4.1989  -4.1989  -0.7339  -0.7339  -0.0063  -0.0063
     0.1486   0.1486   0.3560   0.3560   0.7704   0.7704   0.9262   0.9262

          k =-0.5000 0.2438 0.3611 ( 22990 PWs)   bands (ev):

   -23.2945 -23.2945  -8.9255  -8.9255  -8.7887  -8.7887  -8.5915  -8.5915
    -4.6469  -4.6469  -4.3934  -4.3934  -0.9904  -0.9904  -0.3362  -0.3362
     0.2755   0.2755   0.4943   0.4943   0.8456   0.8456   1.0144   1.0144

          k =-0.5000 0.2438-0.7221 ( 23008 PWs)   bands (ev):

   -23.2857 -23.2857  -9.1697  -9.1697  -8.6742  -8.6742  -8.6105  -8.6105
    -4.6821  -4.6821  -4.1086  -4.1086  -1.4728  -1.4728  -0.2242  -0.2242
     0.3204   0.3204   0.5318   0.5318   0.9107   0.9107   1.0670   1.0670

          k =-0.5000-0.4875 0.0000 ( 23028 PWs)   bands (ev):

   -23.3033 -23.3033  -9.0093  -9.0093  -8.5670  -8.5670  -8.5018  -8.5018
    -5.0981  -5.0981  -4.2522  -4.2522  -0.5750  -0.5750  -0.1616  -0.1616
     0.0342   0.0342   0.5452   0.5452   0.7706   0.7706   0.9120   0.9120

          k =-0.5000-0.4875 0.3611 ( 23000 PWs)   bands (ev):

   -23.2945 -23.2945  -8.8893  -8.8893  -8.8520  -8.8520  -8.5670  -8.5670
    -4.5845  -4.5845  -4.4594  -4.4594  -0.9819  -0.9819  -0.3692  -0.3692
     0.4395   0.4395   0.5786   0.5786   0.7334   0.7334   0.9296   0.9296

          k =-0.5000-0.4875-0.7221 ( 23016 PWs)   bands (ev):

   -23.2857 -23.2857  -9.1384  -9.1384  -8.7086  -8.7086  -8.6199  -8.6199
    -4.6830  -4.6830  -4.0944  -4.0944  -1.2922  -1.2922  -0.5515  -0.5515
     0.5693   0.5693   0.6144   0.6144   0.7633   0.7633   1.0277   1.0277

     highest occupied level (ev):     1.1887

!    total energy              =    -156.46841702 Ry
     estimated scf accuracy    <          5.6E-11 Ry

     The total energy is the sum of the following terms:
     one-electron contribution =     -18.92549560 Ry
     hartree contribution      =      24.69608958 Ry
     xc contribution           =     -49.38461860 Ry
     ewald contribution        =    -112.85439240 Ry

     convergence has been achieved in  11 iterations

     Forces acting on atoms (cartesian axes, Ry/au):

     atom    1 type  2   force =     0.00000000    0.00000000    0.00001589
     atom    2 type  2   force =     0.00000000    0.00000000   -0.00001589
     atom    3 type  1   force =    -0.00033105   -0.00157987   -0.00001066
     atom    4 type  1   force =     0.00033105    0.00157987   -0.00001066
     atom    5 type  1   force =    -0.00033105    0.00157987    0.00001066
     atom    6 type  1   force =     0.00033105   -0.00157987    0.00001066
     atom    7 type  3   force =    -0.01288321    0.00323390   -0.00001276
     atom    8 type  3   force =     0.01288321   -0.00323390   -0.00001276
     atom    9 type  3   force =    -0.01288321   -0.00323390    0.00001276
     atom   10 type  3   force =     0.01288321    0.00323390    0.00001276
     atom   11 type  3   force =     0.00851302    0.01026434    0.00000352
     atom   12 type  3   force =    -0.00851302   -0.01026434    0.00000352
     atom   13 type  3   force =     0.00851302   -0.01026434   -0.00000352
     atom   14 type  3   force =    -0.00851302    0.01026434   -0.00000352
     atom   15 type  3   force =     0.00159716   -0.00757501   -0.01148865
     atom   16 type  3   force =    -0.00159716    0.00757501   -0.01148865
     atom   17 type  3   force =     0.00159716    0.00757501    0.01148865
     atom   18 type  3   force =    -0.00159716   -0.00757501    0.01148865
     atom   19 type  3   force =    -0.00156048    0.00755583    0.01147530
     atom   20 type  3   force =     0.00156048   -0.00755583    0.01147530
     atom   21 type  3   force =    -0.00156048   -0.00755583   -0.01147530
     atom   22 type  3   force =     0.00156048    0.00755583   -0.01147530

     Total force =     0.054406     Total SCF correction =     0.000004


     Computing stress (Cartesian axis) and pressure

          total   stress  (Ry/bohr**3)                   (kbar)     P=       30.44
   0.00019201   0.00000000   0.00000000           28.25        0.00        0.00
   0.00000000   0.00019612   0.00000000            0.00       28.85        0.00
   0.00000000   0.00000000   0.00023262            0.00        0.00       34.22

     Volume is kept fixed: isostatic pressure set to zero

     BFGS Geometry Optimization
     Energy error            =      0.0E+00 Ry
     Gradient error          =      1.3E-02 Ry/Bohr
     Cell gradient error     =      3.8E+00 kbar

     number of scf cycles    =   1
     number of bfgs steps    =   0

     enthalpy           new  =    -156.4684170197 Ry

     new trust radius        =       0.0138535498 bohr
ibrav =      8
 celldm(1) =     12.42237355
 celldm(2) =      1.02567627
 celldm(3) =      0.69309736
Input lattice vectors:
     0.99962747     0.00000000     0.00000000
     0.00000000     1.02529417     0.00000000
     0.00000000     0.00000000     0.69283916
New lattice vectors in INITIAL alat:
     0.99962747     0.00000000     0.00000000
     0.00000000     1.02529417     0.00000000
     0.00000000     0.00000000     0.69283916
New lattice vectors in NEW alat (for information only):
     1.00000000     0.00000000     0.00000000
     0.00000000     1.02567627     0.00000000
     0.00000000     0.00000000     0.69309736
Discrepancy in bohr =     0.000000    0.000000    0.000000
     new conv_thr            =            1.0E-10 Ry

     new unit-cell volume =   1362.75663 a.u.^3 (   201.93970 Ang^3 )
     density =      2.74667 g/cm^3

CELL_PARAMETERS (alat= 12.42700298)
   0.999627471   0.000000000   0.000000000
   0.000000000   1.025294171   0.000000000
   0.000000000   0.000000000   0.692839157

ATOMIC_POSITIONS (crystal)
Ba               0.5000000000        0.5000000000        0.5001010118
Ba               0.0000000000        0.0000000000        0.9998989882
B                0.6102303763        0.2390784179        0.0000644177
B                0.3897696237        0.7609215821        0.0000644177
B                0.1102303763        0.2609215821        0.4999355823
B                0.8897696237        0.7390784179        0.4999355823
H                0.4330605411        0.2924094721        0.0002294506
H                0.5669394589        0.7075905279        0.0002294506
H                0.9330605411        0.2075905279        0.4997705494
H                0.0669394589        0.7924094721        0.4997705494
H                0.7227453101        0.3843603858       -0.0000079626
H                0.2772546899        0.6156396142       -0.0000079626
H                0.2227453101        0.1156396142        0.5000079626
H                0.7772546899        0.8843603858        0.5000079626
H                0.6393784478        0.1415000329        0.7791632046
H                0.3606215522        0.8584999671        0.7791632046
H                0.1393784478        0.3584999671        0.7208367954
H                0.8606215522        0.6415000329        0.7208367954
H                0.3604072589        0.8585487717        0.2208585053
H                0.6395927411        0.1414512283        0.2208585053
H                0.8604072589        0.6414512283        0.2791414947
H                0.1395927411        0.3585487717        0.2791414947



     Writing config-only to output data dir ./pwscf.save/ :
     XML data file
     NEW-OLD atomic charge density approx. for the potential

     total cpu time spent up to now is      233.5 secs

     Self-consistent Calculation

     iteration #  1     ecut=   100.00 Ry     beta= 0.70
     Davidson diagonalization with overlap
     ethr =  1.00E-06,  avg # of iterations =  4.0

     total cpu time spent up to now is      253.8 secs

     total energy              =    -156.47052435 Ry
     estimated scf accuracy    <       0.00077422 Ry

     iteration #  2     ecut=   100.00 Ry     beta= 0.70
     Davidson diagonalization with overlap
     ethr =  1.61E-06,  avg # of iterations =  2.0

     total cpu time spent up to now is      268.0 secs

     total energy              =    -156.47075086 Ry
     estimated scf accuracy    <       0.00016383 Ry

     iteration #  3     ecut=   100.00 Ry     beta= 0.70
     Davidson diagonalization with overlap
     ethr =  3.41E-07,  avg # of iterations =  2.0

     total cpu time spent up to now is      282.2 secs

     total energy              =    -156.47077225 Ry
     estimated scf accuracy    <       0.00000243 Ry

     iteration #  4     ecut=   100.00 Ry     beta= 0.70
     Davidson diagonalization with overlap
     ethr =  5.07E-09,  avg # of iterations =  3.0

     total cpu time spent up to now is      299.6 secs

     total energy              =    -156.47077343 Ry
     estimated scf accuracy    <       0.00000162 Ry

     iteration #  5     ecut=   100.00 Ry     beta= 0.70
     Davidson diagonalization with overlap
     ethr =  3.37E-09,  avg # of iterations =  2.0

     total cpu time spent up to now is      313.8 secs

     total energy              =    -156.47077360 Ry
     estimated scf accuracy    <       0.00000007 Ry

     iteration #  6     ecut=   100.00 Ry     beta= 0.70
     Davidson diagonalization with overlap
     ethr =  1.40E-10,  avg # of iterations =  3.5

     total cpu time spent up to now is      330.1 secs

     total energy              =    -156.47077363 Ry
     estimated scf accuracy    <       0.00000002 Ry

     iteration #  7     ecut=   100.00 Ry     beta= 0.70
     Davidson diagonalization with overlap
     ethr =  3.37E-11,  avg # of iterations =  3.2

     total cpu time spent up to now is      345.2 secs

     total energy              =    -156.47077364 Ry
     estimated scf accuracy    <          4.4E-10 Ry

     iteration #  8     ecut=   100.00 Ry     beta= 0.70
     Davidson diagonalization with overlap
     ethr =  9.13E-13,  avg # of iterations =  6.1

     total cpu time spent up to now is      368.2 secs

     End of self-consistent calculation

          k = 0.0000 0.0000 0.0000 ( 23005 PWs)   bands (ev):

   -23.2968 -23.2841  -8.9809  -8.8663  -8.6095  -8.5582  -8.5337  -8.4499
    -5.8204  -4.7939  -3.9386  -3.8100  -1.5172  -0.5593  -0.4108  -0.1021
     0.3077   0.3392   0.4207   0.5098   0.6933   1.1495   1.1529   1.2000

          k = 0.0000 0.0000 0.3608 ( 23031 PWs)   bands (ev):

   -23.2862 -23.2772  -8.8616  -8.8591  -8.8350  -8.7802  -8.5852  -8.5570
    -5.2210  -4.4651  -4.1658  -4.0925  -1.0802  -0.8070  -0.3570  -0.2997
    -0.1268   0.0140   0.4131   0.7288   0.9086   0.9773   1.0671   1.2189

          k = 0.0000 0.0000-0.7217 ( 23048 PWs)   bands (ev):

   -23.2729 -23.2729  -9.1361  -9.1359  -8.6723  -8.6723  -8.5947  -8.5946
    -4.4207  -4.4202  -4.3875  -4.3870  -0.8466  -0.8460  -0.8393  -0.8376
     0.2846   0.2855   0.4378   0.4395   1.0346   1.0350   1.0534   1.0534

          k = 0.0000 0.2438 0.0000 ( 23067 PWs)   bands (ev):

   -23.2949 -23.2859  -8.9450  -8.8259  -8.6862  -8.6065  -8.5212  -8.4619
    -5.5833  -4.6827  -4.2792  -3.9677  -1.1030  -0.6306  -0.6190   0.2040
     0.2381   0.2511   0.5637   0.7095   0.7843   0.7974   1.0512   1.1226

          k = 0.0000 0.2438 0.3608 ( 23011 PWs)   bands (ev):

   -23.2849 -23.2785  -8.9217  -8.8748  -8.7622  -8.7422  -8.5994  -8.5872
    -5.1082  -4.5544  -4.2053  -4.1312  -0.8794  -0.8338  -0.6571  -0.0215
     0.0241   0.2270   0.2451   0.7873   0.8468   0.9191   1.0207   1.0811

          k = 0.0000 0.2438-0.7217 ( 23008 PWs)   bands (ev):

   -23.2729 -23.2729  -9.1532  -9.1530  -8.6466  -8.6465  -8.5935  -8.5934
    -4.7992  -4.7991  -3.9915  -3.9915  -0.9963  -0.9956  -0.6260  -0.6252
     0.3834   0.3837   0.4641   0.4657   0.8373   0.8375   1.0446   1.0448

          k = 0.0000-0.4877 0.0000 ( 22912 PWs)   bands (ev):

   -23.2904 -23.2904  -8.8389  -8.8389  -8.7160  -8.7160  -8.4912  -8.4912
    -5.0060  -5.0060  -4.3106  -4.3106  -0.7558  -0.7558  -0.1193  -0.1193
     0.1396   0.1396   0.6966   0.6966   0.8435   0.8435   0.9625   0.9625

          k = 0.0000-0.4877 0.3608 ( 23050 PWs)   bands (ev):

   -23.2817 -23.2817  -8.9231  -8.9231  -8.6823  -8.6823  -8.6431  -8.6431
    -4.8298  -4.8298  -4.1957  -4.1957  -0.8234  -0.8234  -0.3954  -0.3954
     0.3006   0.3006   0.6002   0.6002   0.7577   0.7577   0.9905   0.9905

          k = 0.0000-0.4877-0.7217 ( 23036 PWs)   bands (ev):

   -23.2729 -23.2729  -9.1687  -9.1687  -8.6242  -8.6242  -8.5900  -8.5900
    -4.9601  -4.9601  -3.8131  -3.8131  -1.0993  -1.0993  -0.3340  -0.3340
     0.2883   0.2883   0.5332   0.5332   0.6240   0.6240   1.0838   1.0838

          k = 0.2501 0.0000 0.0000 ( 23034 PWs)   bands (ev):

   -23.2949 -23.2859  -8.9306  -8.8444  -8.6687  -8.6332  -8.5212  -8.4619
    -5.5926  -4.8025  -3.9979  -3.9977  -1.3069  -0.3825  -0.3319  -0.2357
     0.3610   0.4188   0.4697   0.5399   0.6455   0.6785   1.1046   1.1382

          k = 0.2501 0.0000 0.3608 ( 23002 PWs)   bands (ev):

   -23.2848 -23.2785  -8.9113  -8.8903  -8.7993  -8.7110  -8.6205  -8.5717
    -5.0511  -4.4308  -4.2414  -4.2108  -1.0541  -0.7961  -0.6576  -0.0739
    -0.0666   0.2506   0.4818   0.6245   0.7903   0.9169   1.1292   1.1650

          k = 0.2501 0.0000-0.7217 ( 22982 PWs)   bands (ev):

   -23.2729 -23.2729  -9.1599  -9.1597  -8.6528  -8.6528  -8.5905  -8.5905
    -4.5739  -4.5735  -4.1950  -4.1947  -1.3659  -1.3654  -0.3305  -0.3301
     0.2931   0.2936   0.6861   0.6874   0.8149   0.8150   1.0762   1.0766

          k = 0.2501 0.2438 0.0000 ( 23016 PWs)   bands (ev):

   -23.2935 -23.2872  -8.9692  -8.8134  -8.7418  -8.5669  -8.5121  -8.4701
    -5.4367  -4.7522  -4.2980  -4.0145  -0.9833  -0.6056  -0.3997   0.0960
     0.1631   0.2243   0.5579   0.7186   0.7275   0.8251   0.8857   1.0497

          k = 0.2501 0.2438 0.3608 ( 23007 PWs)   bands (ev):

   -23.2839 -23.2794  -8.9159  -8.8627  -8.8508  -8.6821  -8.6384  -8.5613
    -4.9569  -4.4912  -4.3061  -4.2125  -1.0190  -0.7745  -0.6492  -0.0505
     0.1039   0.3026   0.4087   0.6514   0.7577   0.8775   1.0460   1.1401

          k = 0.2501 0.2438-0.7217 ( 23016 PWs)   bands (ev):

   -23.2729 -23.2729  -9.1682  -9.1377  -8.6841  -8.6269  -8.6012  -8.5907
    -4.8209  -4.5855  -4.1713  -3.9278  -1.3417  -1.2417  -0.4174  -0.2676
     0.2330   0.2411   0.6494   0.7374   0.8079   0.8749   1.0216   1.0462

          k = 0.2501-0.4877 0.0000 ( 23022 PWs)   bands (ev):

   -23.2903 -23.2903  -8.9384  -8.9384  -8.6146  -8.6146  -8.4907  -8.4907
    -5.0348  -5.0348  -4.2647  -4.2647  -0.6627  -0.6627  -0.1280  -0.1280
     0.0920   0.0920   0.6137   0.6137   0.8917   0.8917   0.8990   0.8990

          k = 0.2501-0.4877 0.3608 ( 23000 PWs)   bands (ev):

   -23.2816 -23.2816  -8.9077  -8.9077  -8.7708  -8.7708  -8.5807  -8.5807
    -4.7257  -4.7257  -4.2733  -4.2733  -0.9274  -0.9274  -0.2885  -0.2885
     0.2538   0.2538   0.6106   0.6106   0.7752   0.7752   1.0151   1.0151

          k = 0.2501-0.4877-0.7217 ( 23008 PWs)   bands (ev):

   -23.2729 -23.2729  -9.1474  -9.1474  -8.6593  -8.6593  -8.5992  -8.5992
    -4.8228  -4.8228  -3.9137  -3.9137  -1.2131  -1.2131  -0.4026  -0.4026
     0.3659   0.3659   0.5018   0.5018   0.8827   0.8827   1.0314   1.0314

          k =-0.5002 0.0000 0.0000 ( 23064 PWs)   bands (ev):

   -23.2903 -23.2903  -8.8046  -8.8046  -8.7634  -8.7634  -8.4913  -8.4913
    -5.0993  -5.0993  -4.1049  -4.1049  -0.8442  -0.8442   0.0176   0.0176
     0.4143   0.4143   0.4269   0.4269   0.5151   0.5151   0.9742   0.9742

          k =-0.5002 0.0000 0.3608 ( 23052 PWs)   bands (ev):

   -23.2816 -23.2816  -8.9298  -8.9298  -8.7125  -8.7125  -8.6224  -8.6224
    -4.6558  -4.6558  -4.3068  -4.3068  -0.9841  -0.9841  -0.3626  -0.3626
     0.2634   0.2634   0.4716   0.4716   0.8791   0.8791   1.1174   1.1174

          k =-0.5002 0.0000-0.7217 ( 22976 PWs)   bands (ev):

   -23.2729 -23.2729  -9.1818  -9.1818  -8.6364  -8.6364  -8.5850  -8.5850
    -4.6396  -4.6396  -4.0856  -4.0856  -1.5986  -1.5986   0.0223   0.0223
     0.2985   0.2985   0.4662   0.4662   1.0173   1.0173   1.0257   1.0257

          k =-0.5002 0.2438 0.0000 ( 23024 PWs)   bands (ev):

   -23.2903 -23.2903  -8.9362  -8.9362  -8.6232  -8.6232  -8.4907  -8.4907
    -5.0821  -5.0821  -4.1611  -4.1611  -0.7250  -0.7250   0.0102   0.0102
     0.1645   0.1645   0.3786   0.3786   0.7920   0.7920   0.9556   0.9556

          k =-0.5002 0.2438 0.3608 ( 22990 PWs)   bands (ev):

   -23.2816 -23.2816  -8.9122  -8.9122  -8.7757  -8.7757  -8.5794  -8.5794
    -4.6137  -4.6137  -4.3533  -4.3533  -0.9912  -0.9912  -0.3233  -0.3233
     0.2967   0.2967   0.5175   0.5175   0.8721   0.8721   1.0417   1.0417

          k =-0.5002 0.2438-0.7217 ( 23008 PWs)   bands (ev):

   -23.2728 -23.2728  -9.1546  -9.1546  -8.6627  -8.6627  -8.5984  -8.5984
    -4.6405  -4.6405  -4.0719  -4.0719  -1.4783  -1.4783  -0.2160  -0.2160
     0.3414   0.3414   0.5564   0.5564   0.9381   0.9381   1.0956   1.0956

          k =-0.5002-0.4877 0.0000 ( 23028 PWs)   bands (ev):

   -23.2903 -23.2903  -8.9962  -8.9962  -8.5547  -8.5547  -8.4901  -8.4901
    -5.0634  -5.0634  -4.2174  -4.2174  -0.5579  -0.5579  -0.1500  -0.1500
     0.0496   0.0496   0.5690   0.5690   0.7959   0.7959   0.9347   0.9347

          k =-0.5002-0.4877 0.3608 ( 23000 PWs)   bands (ev):

   -23.2816 -23.2816  -8.8768  -8.8768  -8.8382  -8.8382  -8.5549  -8.5549
    -4.5493  -4.5493  -4.4216  -4.4216  -0.9821  -0.9821  -0.3553  -0.3553
     0.4599   0.4599   0.6056   0.6056   0.7589   0.7589   0.9536   0.9536

          k =-0.5002-0.4877-0.7217 ( 23016 PWs)   bands (ev):

   -23.2728 -23.2728  -9.1233  -9.1233  -8.6969  -8.6969  -8.6080  -8.6080
    -4.6426  -4.6426  -4.0566  -4.0566  -1.2977  -1.2977  -0.5443  -0.5443
     0.5934   0.5934   0.6416   0.6416   0.7878   0.7878   1.0549   1.0549

     highest occupied level (ev):     1.2189

!    total energy              =    -156.47077364 Ry
     estimated scf accuracy    <          1.2E-11 Ry

     The total energy is the sum of the following terms:
     one-electron contribution =     -18.51239718 Ry
     hartree contribution      =      24.49142727 Ry
     xc contribution           =     -49.33328049 Ry
     ewald contribution        =    -113.11652323 Ry

     convergence has been achieved in   8 iterations

     Forces acting on atoms (cartesian axes, Ry/au):

     atom    1 type  2   force =     0.00000000    0.00000000    0.00001329
     atom    2 type  2   force =     0.00000000    0.00000000   -0.00001329
     atom    3 type  1   force =    -0.00041363   -0.00174091   -0.00001228
     atom    4 type  1   force =     0.00041363    0.00174091   -0.00001228
     atom    5 type  1   force =    -0.00041363    0.00174091    0.00001228
     atom    6 type  1   force =     0.00041363   -0.00174091    0.00001228
     atom    7 type  3   force =    -0.00768441    0.00168419   -0.00001734
     atom    8 type  3   force =     0.00768441   -0.00168419   -0.00001734
     atom    9 type  3   force =    -0.00768441   -0.00168419    0.00001734
     atom   10 type  3   force =     0.00768441    0.00168419    0.00001734
     atom   11 type  3   force =     0.00506008    0.00562885    0.00000455
     atom   12 type  3   force =    -0.00506008   -0.00562885    0.00000455
     atom   13 type  3   force =     0.00506008   -0.00562885   -0.00000455
     atom   14 type  3   force =    -0.00506008    0.00562885   -0.00000455
     atom   15 type  3   force =     0.00067281   -0.00443532   -0.00643961
     atom   16 type  3   force =    -0.00067281    0.00443532   -0.00643961
     atom   17 type  3   force =     0.00067281    0.00443532    0.00643961
     atom   18 type  3   force =    -0.00067281   -0.00443532    0.00643961
     atom   19 type  3   force =    -0.00063136    0.00441838    0.00643224
     atom   20 type  3   force =     0.00063136   -0.00441838    0.00643224
     atom   21 type  3   force =    -0.00063136   -0.00441838   -0.00643224
     atom   22 type  3   force =     0.00063136    0.00441838   -0.00643224

     Total force =     0.031322     Total SCF correction =     0.000001


     Computing stress (Cartesian axis) and pressure

          total   stress  (Ry/bohr**3)                   (kbar)     P=       23.36
   0.00014833   0.00000000   0.00000000           21.82        0.00        0.00
   0.00000000   0.00014966   0.00000000            0.00       22.02        0.00
   0.00000000   0.00000000   0.00017847            0.00        0.00       26.25

     Volume is kept fixed: isostatic pressure set to zero
     Energy error            =      2.4E-03 Ry
     Gradient error          =      7.7E-03 Ry/Bohr
     Cell gradient error     =      2.9E+00 kbar

     number of scf cycles    =   2
     number of bfgs steps    =   1

     enthalpy           old  =    -156.4684170197 Ry
     enthalpy           new  =    -156.4707736393 Ry

     CASE: enthalpy          _new < enthalpy          _old

     new trust radius        =       0.0152443368 bohr
ibrav =      8
 celldm(1) =     12.41606819
 celldm(2) =      1.02574317
 celldm(3) =      0.69410856
Input lattice vectors:
     0.99912008     0.00000000     0.00000000
     0.00000000     1.02484059     0.00000000
     0.00000000     0.00000000     0.69349780
New lattice vectors in INITIAL alat:
     0.99912008     0.00000000     0.00000000
     0.00000000     1.02484059     0.00000000
     0.00000000     0.00000000     0.69349780
New lattice vectors in NEW alat (for information only):
     1.00000000     0.00000000     0.00000000
     0.00000000     1.02574317     0.00000000
     0.00000000     0.00000000     0.69410856
Discrepancy in bohr =     0.000000    0.000000    0.000000
     new conv_thr            =            1.0E-10 Ry

     new unit-cell volume =   1362.75663 a.u.^3 (   201.93970 Ang^3 )
     density =      2.74667 g/cm^3

CELL_PARAMETERS (alat= 12.42700298)
   0.999120079   0.000000000   0.000000000
   0.000000000   1.024840594   0.000000000
   0.000000000   0.000000000   0.693497802

ATOMIC_POSITIONS (crystal)
Ba               0.5000000000        0.5000000000        0.5001040033
Ba               0.0000000000        0.0000000000        0.9998959967
B                0.6101661130        0.2388145333        0.0000616593
B                0.3898338870        0.7611854667        0.0000616593
B                0.1101661130        0.2611854667        0.4999383407
B                0.8898338870        0.7388145333        0.4999383407
H                0.4318619010        0.2926659373        0.0002255566
H                0.5681380990        0.7073340627        0.0002255566
H                0.9318619010        0.2073340627        0.4997744434
H                0.0681380990        0.7926659373        0.4997744434
H                0.7235346193        0.3852171593       -0.0000069409
H                0.2764653807        0.6147828407       -0.0000069409
H                0.2235346193        0.1147828407        0.5000069409
H                0.7764653807        0.8852171593        0.5000069409
H                0.6394837279        0.1408252816        0.7777103127
H                0.3605162721        0.8591747184        0.7777103127
H                0.1394837279        0.3591747184        0.7222896873
H                0.8605162721        0.6408252816        0.7222896873
H                0.3603084218        0.8592209521        0.2223097339
H                0.6396915782        0.1407790479        0.2223097339
H                0.8603084218        0.6407790479        0.2776902661
H                0.1396915782        0.3592209521        0.2776902661



     Writing config-only to output data dir ./pwscf.save/ :
     XML data file
     NEW-OLD atomic charge density approx. for the potential

     total cpu time spent up to now is      397.1 secs

     Self-consistent Calculation

     iteration #  1     ecut=   100.00 Ry     beta= 0.70
     Davidson diagonalization with overlap
     ethr =  1.00E-06,  avg # of iterations =  4.0

     total cpu time spent up to now is      417.8 secs

     total energy              =    -156.47165433 Ry
     estimated scf accuracy    <       0.00093382 Ry

     iteration #  2     ecut=   100.00 Ry     beta= 0.70
     Davidson diagonalization with overlap
     ethr =  1.95E-06,  avg # of iterations =  2.0

     total cpu time spent up to now is      431.9 secs

     total energy              =    -156.47192711 Ry
     estimated scf accuracy    <       0.00019530 Ry

     iteration #  3     ecut=   100.00 Ry     beta= 0.70
     Davidson diagonalization with overlap
     ethr =  4.07E-07,  avg # of iterations =  2.0

     total cpu time spent up to now is      446.2 secs

     total energy              =    -156.47195208 Ry
     estimated scf accuracy    <       0.00000315 Ry

     iteration #  4     ecut=   100.00 Ry     beta= 0.70
     Davidson diagonalization with overlap
     ethr =  6.56E-09,  avg # of iterations =  3.0

     total cpu time spent up to now is      463.4 secs

     total energy              =    -156.47195359 Ry
     estimated scf accuracy    <       0.00000200 Ry

     iteration #  5     ecut=   100.00 Ry     beta= 0.70
     Davidson diagonalization with overlap
     ethr =  4.17E-09,  avg # of iterations =  2.0

     total cpu time spent up to now is      477.6 secs

     total energy              =    -156.47195383 Ry
     estimated scf accuracy    <       0.00000006 Ry

     iteration #  6     ecut=   100.00 Ry     beta= 0.70
     Davidson diagonalization with overlap
     ethr =  1.28E-10,  avg # of iterations =  4.1

     total cpu time spent up to now is      494.4 secs

     total energy              =    -156.47195386 Ry
     estimated scf accuracy    <       0.00000002 Ry

     iteration #  7     ecut=   100.00 Ry     beta= 0.70
     Davidson diagonalization with overlap
     ethr =  4.67E-11,  avg # of iterations =  3.4

     total cpu time spent up to now is      509.3 secs

     total energy              =    -156.47195387 Ry
     estimated scf accuracy    <          5.4E-10 Ry

     iteration #  8     ecut=   100.00 Ry     beta= 0.70
     Davidson diagonalization with overlap
     ethr =  1.12E-12,  avg # of iterations =  6.2

     total cpu time spent up to now is      532.8 secs

     End of self-consistent calculation

          k = 0.0000 0.0000 0.0000 ( 23005 PWs)   bands (ev):

   -23.2830 -23.2702  -8.9654  -8.8526  -8.5957  -8.5454  -8.5215  -8.4371
    -5.7929  -4.7475  -3.8949  -3.7630  -1.5171  -0.5390  -0.4007  -0.0717
     0.3286   0.3527   0.4329   0.5301   0.7089   1.1840   1.1895   1.2395

          k = 0.0000 0.0000 0.3605 ( 23031 PWs)   bands (ev):

   -23.2725 -23.2634  -8.8462  -8.8448  -8.8191  -8.7672  -8.5719  -8.5444
    -5.1935  -4.4221  -4.1194  -4.0435  -1.0835  -0.8030  -0.3527  -0.2787
    -0.1119   0.0299   0.4369   0.7581   0.9419   1.0118   1.0952   1.2541

          k = 0.0000 0.0000-0.7210 ( 23048 PWs)   bands (ev):

   -23.2593 -23.2593  -9.1184  -9.1181  -8.6601  -8.6600  -8.5817  -8.5817
    -4.3856  -4.3852  -4.3376  -4.3370  -0.8486  -0.8480  -0.8389  -0.8373
     0.3117   0.3126   0.4620   0.4637   1.0707   1.0710   1.0832   1.0833

          k = 0.0000 0.2439 0.0000 ( 23067 PWs)   bands (ev):

   -23.2811 -23.2721  -8.9297  -8.8120  -8.6724  -8.5936  -8.5088  -8.4492
    -5.5545  -4.6357  -4.2421  -3.9212  -1.0963  -0.6147  -0.6090   0.2216
     0.2526   0.2827   0.5859   0.7281   0.8159   0.8169   1.0854   1.1587

          k = 0.0000 0.2439 0.3605 ( 23011 PWs)   bands (ev):

   -23.2711 -23.2647  -8.9068  -8.8594  -8.7473  -8.7290  -8.5859  -8.5747
    -5.0783  -4.5125  -4.1615  -4.0839  -0.8790  -0.8305  -0.6498  -0.0093
     0.0428   0.2543   0.2644   0.8168   0.8782   0.9522   1.0508   1.1139

          k = 0.0000 0.2439-0.7210 ( 23008 PWs)   bands (ev):

   -23.2593 -23.2593  -9.1357  -9.1355  -8.6344  -8.6344  -8.5804  -8.5804
    -4.7567  -4.7567  -3.9494  -3.9494  -0.9958  -0.9951  -0.6265  -0.6256
     0.4107   0.4110   0.4900   0.4916   0.8667   0.8668   1.0786   1.0788

          k = 0.0000-0.4879 0.0000 ( 22912 PWs)   bands (ev):

   -23.2766 -23.2766  -8.8238  -8.8238  -8.7032  -8.7032  -8.4787  -8.4787
    -4.9729  -4.9729  -4.2657  -4.2657  -0.7471  -0.7471  -0.0977  -0.0977
     0.1548   0.1548   0.7312   0.7312   0.8630   0.8630   0.9941   0.9941

          k = 0.0000-0.4879 0.3605 ( 23050 PWs)   bands (ev):

   -23.2679 -23.2679  -8.9081  -8.9081  -8.6675  -8.6675  -8.6307  -8.6307
    -4.7939  -4.7939  -4.1514  -4.1514  -0.8205  -0.8205  -0.3846  -0.3846
     0.3234   0.3234   0.6227   0.6227   0.7922   0.7922   1.0217   1.0217

          k = 0.0000-0.4879-0.7210 ( 23036 PWs)   bands (ev):

   -23.2593 -23.2593  -9.1514  -9.1514  -8.6122  -8.6122  -8.5768  -8.5768
    -4.9174  -4.9174  -3.7716  -3.7716  -1.0990  -1.0990  -0.3346  -0.3346
     0.3170   0.3170   0.5583   0.5583   0.6538   0.6538   1.1184   1.1184

          k = 0.2502 0.0000 0.0000 ( 23034 PWs)   bands (ev):

   -23.2811 -23.2720  -8.9153  -8.8309  -8.6546  -8.6204  -8.5088  -8.4492
    -5.5633  -4.7587  -3.9537  -3.9532  -1.3049  -0.3668  -0.3193  -0.2121
     0.3789   0.4343   0.4863   0.5669   0.6642   0.7076   1.1410   1.1779

          k = 0.2502 0.0000 0.3605 ( 23002 PWs)   bands (ev):

   -23.2711 -23.2647  -8.8964  -8.8750  -8.7848  -8.6973  -8.6073  -8.5588
    -5.0215  -4.3885  -4.1951  -4.1645  -1.0582  -0.7888  -0.6566  -0.0511
    -0.0499   0.2700   0.5092   0.6528   0.8182   0.9466   1.1649   1.1971

          k = 0.2502 0.0000-0.7210 ( 22982 PWs)   bands (ev):

   -23.2593 -23.2592  -9.1424  -9.1422  -8.6406  -8.6406  -8.5775  -8.5775
    -4.5277  -4.5273  -4.1557  -4.1553  -1.3708  -1.3703  -0.3261  -0.3258
     0.3206   0.3210   0.7129   0.7143   0.8440   0.8441   1.1099   1.1103

          k = 0.2502 0.2439 0.0000 ( 23016 PWs)   bands (ev):

   -23.2797 -23.2733  -8.9545  -8.7988  -8.7286  -8.5537  -8.4997  -8.4575
    -5.4054  -4.7087  -4.2579  -3.9714  -0.9747  -0.5938  -0.3815   0.1167
     0.1781   0.2393   0.5882   0.7377   0.7591   0.8453   0.9204   1.0833

          k = 0.2502 0.2439 0.3605 ( 23007 PWs)   bands (ev):

   -23.2702 -23.2656  -8.9007  -8.8475  -8.8372  -8.6674  -8.6258  -8.5484
    -4.9253  -4.4483  -4.2643  -4.1664  -1.0205  -0.7731  -0.6401  -0.0318
     0.1240   0.3239   0.4343   0.6779   0.7882   0.9086   1.0781   1.1722

          k = 0.2502 0.2439-0.7210 ( 23016 PWs)   bands (ev):

   -23.2592 -23.2592  -9.1507  -9.1201  -8.6720  -8.6148  -8.5884  -8.5776
    -4.7763  -4.5414  -4.1299  -3.8871  -1.3460  -1.2464  -0.4113  -0.2641
     0.2593   0.2679   0.6734   0.7640   0.8408   0.9059   1.0515   1.0831

          k = 0.2502-0.4879 0.0000 ( 23022 PWs)   bands (ev):

   -23.2765 -23.2765  -8.9240  -8.9240  -8.6012  -8.6012  -8.4781  -8.4781
    -4.9983  -4.9983  -4.2237  -4.2237  -0.6502  -0.6502  -0.1064  -0.1064
     0.1062   0.1062   0.6418   0.6418   0.9124   0.9124   0.9325   0.9325

          k = 0.2502-0.4879 0.3605 ( 23000 PWs)   bands (ev):

   -23.2679 -23.2679  -8.8930  -8.8930  -8.7565  -8.7565  -8.5676  -8.5676
    -4.6886  -4.6886  -4.2300  -4.2300  -0.9267  -0.9267  -0.2735  -0.2735
     0.2746   0.2746   0.6373   0.6373   0.8060   0.8060   1.0460   1.0460

          k = 0.2502-0.4879-0.7210 ( 23008 PWs)   bands (ev):

   -23.2592 -23.2592  -9.1299  -9.1299  -8.6472  -8.6472  -8.5862  -8.5862
    -4.7792  -4.7792  -3.8721  -3.8721  -1.2168  -1.2168  -0.3971  -0.3971
     0.3932   0.3932   0.5264   0.5264   0.9136   0.9136   1.0654   1.0654

          k =-0.5004 0.0000 0.0000 ( 23064 PWs)   bands (ev):

   -23.2765 -23.2765  -8.7894  -8.7894  -8.7506  -8.7506  -8.4787  -8.4787
    -5.0643  -5.0643  -4.0598  -4.0598  -0.8381  -0.8381   0.0360   0.0360
     0.4264   0.4264   0.4584   0.4584   0.5371   0.5371   1.0116   1.0116

          k =-0.5004 0.0000 0.3605 ( 23052 PWs)   bands (ev):

   -23.2679 -23.2679  -8.9149  -8.9149  -8.6983  -8.6983  -8.6094  -8.6094
    -4.6206  -4.6206  -4.2604  -4.2604  -0.9863  -0.9863  -0.3498  -0.3498
     0.2886   0.2886   0.4974   0.4974   0.9065   0.9065   1.1523   1.1523

          k =-0.5004 0.0000-0.7210 ( 22976 PWs)   bands (ev):

   -23.2592 -23.2592  -9.1644  -9.1644  -8.6242  -8.6242  -8.5719  -8.5719
    -4.5913  -4.5913  -4.0475  -4.0475  -1.6056  -1.6056   0.0284   0.0284
     0.3260   0.3260   0.4928   0.4928   1.0534   1.0534   1.0541   1.0541

          k =-0.5004 0.2439 0.0000 ( 23024 PWs)   bands (ev):

   -23.2765 -23.2765  -8.9220  -8.9220  -8.6097  -8.6097  -8.4782  -8.4782
    -5.0451  -5.0451  -4.1197  -4.1197  -0.7135  -0.7135   0.0300   0.0300
     0.1785   0.1785   0.4060   0.4060   0.8126   0.8126   0.9913   0.9913

          k =-0.5004 0.2439 0.3605 ( 22990 PWs)   bands (ev):

   -23.2679 -23.2679  -8.8975  -8.8975  -8.7613  -8.7613  -8.5664  -8.5664
    -4.5772  -4.5772  -4.3088  -4.3088  -0.9923  -0.9923  -0.3091  -0.3091
     0.3217   0.3217   0.5426   0.5426   0.9013   0.9013   1.0737   1.0737

          k =-0.5004 0.2439-0.7210 ( 23008 PWs)   bands (ev):

   -23.2592 -23.2592  -9.1371  -9.1371  -8.6506  -8.6506  -8.5855  -8.5855
    -4.5939  -4.5939  -4.0322  -4.0322  -1.4849  -1.4849  -0.2081  -0.2081
     0.3666   0.3666   0.5835   0.5835   0.9706   0.9706   1.1280   1.1280

          k =-0.5004-0.4879 0.0000 ( 23028 PWs)   bands (ev):

   -23.2765 -23.2765  -8.9820  -8.9820  -8.5414  -8.5414  -8.4776  -8.4776
    -5.0241  -5.0241  -4.1797  -4.1797  -0.5376  -0.5376  -0.1348  -0.1348
     0.0629   0.0629   0.5992   0.5992   0.8253   0.8253   0.9564   0.9564

          k =-0.5004-0.4879 0.3605 ( 23000 PWs)   bands (ev):

   -23.2678 -23.2678  -8.8635  -8.8635  -8.8225  -8.8225  -8.5419  -8.5419
    -4.5103  -4.5103  -4.3801  -4.3801  -0.9824  -0.9824  -0.3401  -0.3401
     0.4824   0.4824   0.6368   0.6368   0.7890   0.7890   0.9795   0.9795

          k =-0.5004-0.4879-0.7210 ( 23016 PWs)   bands (ev):

   -23.2592 -23.2592  -9.1055  -9.1055  -8.6849  -8.6849  -8.5952  -8.5952
    -4.5975  -4.5975  -4.0153  -4.0153  -1.3039  -1.3039  -0.5377  -0.5377
     0.6196   0.6196   0.6730   0.6730   0.8187   0.8187   1.0847   1.0847

     highest occupied level (ev):     1.2541

!    total energy              =    -156.47195387 Ry
     estimated scf accuracy    <          1.4E-11 Ry

     The total energy is the sum of the following terms:
     one-electron contribution =     -18.04296852 Ry
     hartree contribution      =      24.25904265 Ry
     xc contribution           =     -49.27654636 Ry
     ewald contribution        =    -113.41148164 Ry

     convergence has been achieved in   8 iterations

     Forces acting on atoms (cartesian axes, Ry/au):

     atom    1 type  2   force =     0.00000000    0.00000000    0.00000799
     atom    2 type  2   force =     0.00000000    0.00000000   -0.00000799
     atom    3 type  1   force =    -0.00053419   -0.00105233   -0.00000916
     atom    4 type  1   force =     0.00053419    0.00105233   -0.00000916
     atom    5 type  1   force =    -0.00053419    0.00105233    0.00000916
     atom    6 type  1   force =     0.00053419   -0.00105233    0.00000916
     atom    7 type  3   force =    -0.00200825   -0.00002101   -0.00002262
     atom    8 type  3   force =     0.00200825    0.00002101   -0.00002262
     atom    9 type  3   force =    -0.00200825    0.00002101    0.00002262
     atom   10 type  3   force =     0.00200825   -0.00002101    0.00002262
     atom   11 type  3   force =     0.00114711    0.00039420    0.00000504
     atom   12 type  3   force =    -0.00114711   -0.00039420    0.00000504
     atom   13 type  3   force =     0.00114711   -0.00039420   -0.00000504
     atom   14 type  3   force =    -0.00114711    0.00039420   -0.00000504
     atom   15 type  3   force =    -0.00026768   -0.00131139   -0.00118599
     atom   16 type  3   force =     0.00026768    0.00131139   -0.00118599
     atom   17 type  3   force =    -0.00026768    0.00131139    0.00118599
     atom   18 type  3   force =     0.00026768   -0.00131139    0.00118599
     atom   19 type  3   force =     0.00031268    0.00129650    0.00118221
     atom   20 type  3   force =    -0.00031268   -0.00129650    0.00118221
     atom   21 type  3   force =     0.00031268   -0.00129650   -0.00118221
     atom   22 type  3   force =    -0.00031268    0.00129650   -0.00118221

     Total force =     0.007286     Total SCF correction =     0.000001


     Computing stress (Cartesian axis) and pressure

          total   stress  (Ry/bohr**3)                   (kbar)     P=       15.64
   0.00009975   0.00000000   0.00000000           14.67        0.00        0.00
   0.00000000   0.00009944   0.00000000            0.00       14.63        0.00
   0.00000000   0.00000000   0.00011984            0.00        0.00       17.63

     Volume is kept fixed: isostatic pressure set to zero
     Energy error            =      1.2E-03 Ry
     Gradient error          =      2.0E-03 Ry/Bohr
     Cell gradient error     =      2.0E+00 kbar

     number of scf cycles    =   3
     number of bfgs steps    =   2

     enthalpy           old  =    -156.4707736393 Ry
     enthalpy           new  =    -156.4719538675 Ry

     CASE: enthalpy          _new < enthalpy          _old

     new trust radius        =       0.0048038231 bohr
ibrav =      8
 celldm(1) =     12.41251884
 celldm(2) =      1.02574335
 celldm(3) =      0.69470405
Input lattice vectors:
     0.99883446     0.00000000     0.00000000
     0.00000000     1.02454781     0.00000000
     0.00000000     0.00000000     0.69389435
New lattice vectors in INITIAL alat:
     0.99883446     0.00000000     0.00000000
     0.00000000     1.02454781     0.00000000
     0.00000000     0.00000000     0.69389435
New lattice vectors in NEW alat (for information only):
     1.00000000     0.00000000     0.00000000
     0.00000000     1.02574335     0.00000000
     0.00000000     0.00000000     0.69470405
Discrepancy in bohr =     0.000000    0.000000    0.000000
     new conv_thr            =            1.0E-10 Ry

     new unit-cell volume =   1362.75663 a.u.^3 (   201.93970 Ang^3 )
     density =      2.74667 g/cm^3

CELL_PARAMETERS (alat= 12.42700298)
   0.998834462   0.000000000   0.000000000
   0.000000000   1.024547807   0.000000000
   0.000000000   0.000000000   0.693894346

ATOMIC_POSITIONS (crystal)
Ba               0.5000000000        0.5000000000        0.5001056347
Ba               0.0000000000        0.0000000000        0.9998943653
B                0.6101017261        0.2386704467        0.0000598918
B                0.3898982739        0.7613295533        0.0000598918
B                0.1101017261        0.2613295533        0.4999401082
B                0.8898982739        0.7386704467        0.4999401082
H                0.4314767973        0.2927021818        0.0002216164
H                0.5685232027        0.7072978182        0.0002216164
H                0.9314767973        0.2072978182        0.4997783836
H                0.0685232027        0.7927021818        0.4997783836
H                0.7237701426        0.3853845771       -0.0000060409
H                0.2762298574        0.6146154229       -0.0000060409
H                0.2237701426        0.1146154229        0.5000060409
H                0.7762298574        0.8853845771        0.5000060409
H                0.6394720810        0.1405930825        0.7773167849
H                0.3605279190        0.8594069175        0.7773167849
H                0.1394720810        0.3594069175        0.7226832151
H                0.8605279190        0.6405930825        0.7226832151
H                0.3603256440        0.8594512782        0.2227024490
H                0.6396743560        0.1405487218        0.2227024490
H                0.8603256440        0.6405487218        0.2772975510
H                0.1396743560        0.3594512782        0.2772975510



     Writing config-only to output data dir ./pwscf.save/ :
     XML data file
     NEW-OLD atomic charge density approx. for the potential

     total cpu time spent up to now is      561.5 secs

     Self-consistent Calculation

     iteration #  1     ecut=   100.00 Ry     beta= 0.70
     Davidson diagonalization with overlap
     ethr =  1.00E-06,  avg # of iterations =  2.9

     total cpu time spent up to now is      577.6 secs

     total energy              =    -156.47202138 Ry
     estimated scf accuracy    <       0.00005898 Ry

     iteration #  2     ecut=   100.00 Ry     beta= 0.70
     Davidson diagonalization with overlap
     ethr =  1.23E-07,  avg # of iterations =  2.0

     total cpu time spent up to now is      591.8 secs

     total energy              =    -156.47203652 Ry
     estimated scf accuracy    <       0.00000532 Ry

     iteration #  3     ecut=   100.00 Ry     beta= 0.70
     Davidson diagonalization with overlap
     ethr =  1.11E-08,  avg # of iterations =  2.0

     total cpu time spent up to now is      606.0 secs

     total energy              =    -156.47203728 Ry
     estimated scf accuracy    <       0.00000011 Ry

     iteration #  4     ecut=   100.00 Ry     beta= 0.70
     Davidson diagonalization with overlap
     ethr =  2.24E-10,  avg # of iterations =  4.3

     total cpu time spent up to now is      624.0 secs

     total energy              =    -156.47203732 Ry
     estimated scf accuracy    <       0.00000006 Ry

     iteration #  5     ecut=   100.00 Ry     beta= 0.70
     Davidson diagonalization with overlap
     ethr =  1.22E-10,  avg # of iterations =  2.7

     total cpu time spent up to now is      638.4 secs

     total energy              =    -156.47203734 Ry
     estimated scf accuracy    <          4.0E-09 Ry

     iteration #  6     ecut=   100.00 Ry     beta= 0.70
     Davidson diagonalization with overlap
     ethr =  8.27E-12,  avg # of iterations =  4.6

     total cpu time spent up to now is      656.4 secs

     End of self-consistent calculation

          k = 0.0000 0.0000 0.0000 ( 23005 PWs)   bands (ev):

   -23.2797 -23.2669  -8.9611  -8.8490  -8.5920  -8.5421  -8.5186  -8.4340
    -5.7850  -4.7342  -3.8824  -3.7494  -1.5154  -0.5329  -0.3977  -0.0614
     0.3335   0.3585   0.4342   0.5350   0.7114   1.1945   1.2001   1.2535

          k = 0.0000 0.0000 0.3603 ( 23031 PWs)   bands (ev):

   -23.2693 -23.2602  -8.8416  -8.8410  -8.8142  -8.7640  -8.5685  -8.5412
    -5.1864  -4.4107  -4.1057  -4.0290  -1.0838  -0.8013  -0.3504  -0.2726
    -0.1083   0.0335   0.4440   0.7665   0.9514   1.0229   1.1037   1.2662

          k = 0.0000 0.0000-0.7206 ( 23048 PWs)   bands (ev):

   -23.2561 -23.2561  -9.1125  -9.1122  -8.6573  -8.6572  -8.5785  -8.5785
    -4.3770  -4.3766  -4.3224  -4.3218  -0.8496  -0.8490  -0.8379  -0.8363
     0.3195   0.3204   0.4687   0.4705   1.0833   1.0833   1.0922   1.0925

          k = 0.0000 0.2440 0.0000 ( 23067 PWs)   bands (ev):

   -23.2778 -23.2688  -8.9254  -8.8083  -8.6687  -8.5903  -8.5059  -8.4461
    -5.5462  -4.6220  -4.2318  -3.9079  -1.0926  -0.6098  -0.6057   0.2251
     0.2549   0.2932   0.5942   0.7322   0.8197   0.8286   1.0959   1.1694

          k = 0.0000 0.2440 0.3603 ( 23011 PWs)   bands (ev):

   -23.2679 -23.2615  -8.9027  -8.8549  -8.7431  -8.7257  -8.5823  -8.5715
    -5.0705  -4.5010  -4.1488  -4.0701  -0.8783  -0.8291  -0.6473  -0.0065
     0.0482   0.2629   0.2696   0.8256   0.8876   0.9635   1.0594   1.1243

          k = 0.0000 0.2440-0.7206 ( 23008 PWs)   bands (ev):

   -23.2561 -23.2561  -9.1299  -9.1297  -8.6316  -8.6315  -8.5771  -8.5771
    -4.7448  -4.7448  -3.9378  -3.9377  -0.9949  -0.9942  -0.6270  -0.6261
     0.4187   0.4190   0.4978   0.4994   0.8756   0.8756   1.0901   1.0903

          k = 0.0000-0.4880 0.0000 ( 22912 PWs)   bands (ev):

   -23.2733 -23.2733  -8.8196  -8.8196  -8.6999  -8.6999  -8.4757  -8.4757
    -4.9632  -4.9632  -4.2532  -4.2532  -0.7439  -0.7439  -0.0898  -0.0898
     0.1573   0.1573   0.7430   0.7430   0.8674   0.8674   1.0036   1.0036

          k = 0.0000-0.4880 0.3603 ( 23050 PWs)   bands (ev):

   -23.2647 -23.2647  -8.9038  -8.9038  -8.6634  -8.6634  -8.6276  -8.6276
    -4.7842  -4.7842  -4.1387  -4.1387  -0.8194  -0.8194  -0.3810  -0.3810
     0.3298   0.3298   0.6289   0.6289   0.8042   0.8042   1.0306   1.0306

          k = 0.0000-0.4880-0.7206 ( 23036 PWs)   bands (ev):

   -23.2561 -23.2561  -9.1458  -9.1458  -8.6094  -8.6094  -8.5735  -8.5735
    -4.9054  -4.9054  -3.7603  -3.7603  -1.0981  -1.0981  -0.3351  -0.3351
     0.3263   0.3263   0.5653   0.5653   0.6630   0.6630   1.1297   1.1297

          k = 0.2503 0.0000 0.0000 ( 23034 PWs)   bands (ev):

   -23.2778 -23.2687  -8.9110  -8.8273  -8.6508  -8.6171  -8.5060  -8.4461
    -5.5548  -4.7460  -3.9410  -3.9404  -1.3027  -0.3607  -0.3158  -0.2048
     0.3822   0.4372   0.4897   0.5768   0.6680   0.7158   1.1522   1.1918

          k = 0.2503 0.0000 0.3603 ( 23002 PWs)   bands (ev):

   -23.2679 -23.2615  -8.8922  -8.8707  -8.7808  -8.6936  -8.6038  -8.5555
    -5.0137  -4.3770  -4.1815  -4.1510  -1.0593  -0.7860  -0.6562  -0.0451
    -0.0444   0.2752   0.5178   0.6614   0.8257   0.9552   1.1773   1.2069

          k = 0.2503 0.0000-0.7206 ( 22982 PWs)   bands (ev):

   -23.2561 -23.2561  -9.1366  -9.1365  -8.6378  -8.6377  -8.5742  -8.5742
    -4.5142  -4.5138  -4.1452  -4.1449  -1.3722  -1.3717  -0.3247  -0.3244
     0.3286   0.3290   0.7210   0.7223   0.8535   0.8537   1.1206   1.1211

          k = 0.2503 0.2440 0.0000 ( 23016 PWs)   bands (ev):

   -23.2764 -23.2700  -8.9505  -8.7949  -8.7251  -8.5502  -8.4968  -8.4544
    -5.3962  -4.6957  -4.2469  -3.9592  -0.9705  -0.5898  -0.3759   0.1235
     0.1806   0.2417   0.5983   0.7419   0.7699   0.8498   0.9309   1.0943

          k = 0.2503 0.2440 0.3603 ( 23007 PWs)   bands (ev):

   -23.2669 -23.2624  -8.8965  -8.8429  -8.8337  -8.6633  -8.6226  -8.5452
    -4.9167  -4.4364  -4.2524  -4.1529  -1.0210  -0.7725  -0.6366  -0.0264
     0.1301   0.3299   0.4420   0.6853   0.7980   0.9184   1.0877   1.1823

          k = 0.2503 0.2440-0.7206 ( 23016 PWs)   bands (ev):

   -23.2560 -23.2560  -9.1450  -9.1143  -8.6693  -8.6119  -8.5853  -8.5743
    -4.7636  -4.5288  -4.1185  -3.8761  -1.3470  -1.2477  -0.4091  -0.2632
     0.2670   0.2763   0.6802   0.7715   0.8522   0.9154   1.0601   1.0959

          k = 0.2503-0.4880 0.0000 ( 23022 PWs)   bands (ev):

   -23.2732 -23.2732  -8.9201  -8.9201  -8.5977  -8.5977  -8.4752  -8.4752
    -4.9874  -4.9874  -4.2125  -4.2125  -0.6457  -0.6457  -0.0987  -0.0987
     0.1083   0.1083   0.6512   0.6512   0.9172   0.9172   0.9431   0.9431

          k = 0.2503-0.4880 0.3603 ( 23000 PWs)   bands (ev):

   -23.2646 -23.2646  -8.8889  -8.8889  -8.7525  -8.7525  -8.5643  -8.5643
    -4.6784  -4.6784  -4.2177  -4.2177  -0.9263  -0.9263  -0.2684  -0.2684
     0.2805   0.2805   0.6452   0.6452   0.8162   0.8162   1.0549   1.0549

          k = 0.2503-0.4880-0.7206 ( 23008 PWs)   bands (ev):

   -23.2560 -23.2560  -9.1242  -9.1242  -8.6444  -8.6444  -8.5830  -8.5830
    -4.7668  -4.7668  -3.8607  -3.8607  -1.2175  -1.2175  -0.3955  -0.3955
     0.4018   0.4018   0.5335   0.5335   0.9235   0.9235   1.0760   1.0760

          k =-0.5006 0.0000 0.0000 ( 23064 PWs)   bands (ev):

   -23.2732 -23.2732  -8.7852  -8.7852  -8.7474  -8.7474  -8.4758  -8.4758
    -5.0540  -5.0540  -4.0470  -4.0470  -0.8348  -0.8348   0.0411   0.0411
     0.4277   0.4277   0.4681   0.4681   0.5425   0.5425   1.0246   1.0246

          k =-0.5006 0.0000 0.3603 ( 23052 PWs)   bands (ev):

   -23.2646 -23.2646  -8.9107  -8.9107  -8.6945  -8.6945  -8.6060  -8.6060
    -4.6109  -4.6109  -4.2471  -4.2471  -0.9872  -0.9872  -0.3453  -0.3453
     0.2959   0.2959   0.5050   0.5050   0.9141   0.9141   1.1639   1.1639

          k =-0.5006 0.0000-0.7206 ( 22976 PWs)   bands (ev):

   -23.2560 -23.2560  -9.1588  -9.1588  -8.6214  -8.6214  -8.5686  -8.5686
    -4.5769  -4.5769  -4.0377  -4.0377  -1.6076  -1.6076   0.0304   0.0304
     0.3341   0.3341   0.5013   0.5013   1.0617   1.0617   1.0660   1.0660

          k =-0.5006 0.2440 0.0000 ( 23024 PWs)   bands (ev):

   -23.2732 -23.2732  -8.9182  -8.9182  -8.6062  -8.6062  -8.4752  -8.4752
    -5.0341  -5.0341  -4.1081  -4.1081  -0.7087  -0.7087   0.0362   0.0362
     0.1806   0.1806   0.4144   0.4144   0.8173   0.8173   1.0035   1.0035

          k =-0.5006 0.2440 0.3603 ( 22990 PWs)   bands (ev):

   -23.2646 -23.2646  -8.8934  -8.8934  -8.7573  -8.7573  -8.5631  -8.5631
    -4.5669  -4.5669  -4.2961  -4.2961  -0.9928  -0.9928  -0.3042  -0.3042
     0.3291   0.3291   0.5501   0.5501   0.9094   0.9094   1.0841   1.0841

          k =-0.5006 0.2440-0.7206 ( 23008 PWs)   bands (ev):

   -23.2560 -23.2560  -9.1314  -9.1314  -8.6478  -8.6478  -8.5823  -8.5823
    -4.5801  -4.5801  -4.0218  -4.0218  -1.4868  -1.4868  -0.2057  -0.2057
     0.3746   0.3746   0.5916   0.5916   0.9812   0.9812   1.1377   1.1377

          k =-0.5006-0.4880 0.0000 ( 23028 PWs)   bands (ev):

   -23.2731 -23.2731  -8.9782  -8.9782  -8.5379  -8.5379  -8.4746  -8.4746
    -5.0122  -5.0122  -4.1695  -4.1695  -0.5301  -0.5301  -0.1300  -0.1300
     0.0648   0.0648   0.6092   0.6092   0.8348   0.8348   0.9615   0.9615

          k =-0.5006-0.4880 0.3603 ( 23000 PWs)   bands (ev):

   -23.2646 -23.2646  -8.8601  -8.8601  -8.8178  -8.8178  -8.5387  -8.5387
    -4.4992  -4.4992  -4.3684  -4.3684  -0.9824  -0.9824  -0.3354  -0.3354
     0.4895   0.4895   0.6465   0.6465   0.7986   0.7986   0.9866   0.9866

          k =-0.5006-0.4880-0.7206 ( 23016 PWs)   bands (ev):

   -23.2560 -23.2560  -9.0996  -9.0996  -8.6822  -8.6822  -8.5921  -8.5921
    -4.5844  -4.5844  -4.0041  -4.0041  -1.3055  -1.3055  -0.5358  -0.5358
     0.6270   0.6270   0.6835   0.6835   0.8293   0.8293   1.0930   1.0930

     highest occupied level (ev):     1.2662

!    total energy              =    -156.47203734 Ry
     estimated scf accuracy    <          1.3E-11 Ry

     The total energy is the sum of the following terms:
     one-electron contribution =     -17.89537610 Ry
     hartree contribution      =      24.18596430 Ry
     xc contribution           =     -49.26025696 Ry
     ewald contribution        =    -113.50236859 Ry

     convergence has been achieved in   6 iterations

     Forces acting on atoms (cartesian axes, Ry/au):

     atom    1 type  2   force =     0.00000000    0.00000000    0.00000439
     atom    2 type  2   force =     0.00000000    0.00000000   -0.00000439
     atom    3 type  1   force =    -0.00049604   -0.00078382   -0.00000791
     atom    4 type  1   force =     0.00049604    0.00078382   -0.00000791
     atom    5 type  1   force =    -0.00049604    0.00078382    0.00000791
     atom    6 type  1   force =     0.00049604   -0.00078382    0.00000791
     atom    7 type  3   force =    -0.00051482   -0.00044537   -0.00002410
     atom    8 type  3   force =     0.00051482    0.00044537   -0.00002410
     atom    9 type  3   force =    -0.00051482    0.00044537    0.00002410
     atom   10 type  3   force =     0.00051482   -0.00044537    0.00002410
     atom   11 type  3   force =     0.00005273   -0.00101218    0.00000475
     atom   12 type  3   force =    -0.00005273    0.00101218    0.00000475
     atom   13 type  3   force =     0.00005273    0.00101218   -0.00000475
     atom   14 type  3   force =    -0.00005273   -0.00101218   -0.00000475
     atom   15 type  3   force =    -0.00052720   -0.00049777    0.00032472
     atom   16 type  3   force =     0.00052720    0.00049777    0.00032472
     atom   17 type  3   force =    -0.00052720    0.00049777   -0.00032472
     atom   18 type  3   force =     0.00052720   -0.00049777   -0.00032472
     atom   19 type  3   force =     0.00057136    0.00048517   -0.00032645
     atom   20 type  3   force =    -0.00057136   -0.00048517   -0.00032645
     atom   21 type  3   force =     0.00057136   -0.00048517    0.00032645
     atom   22 type  3   force =    -0.00057136    0.00048517    0.00032645

     Total force =     0.003822     Total SCF correction =     0.000001


     Computing stress (Cartesian axis) and pressure

          total   stress  (Ry/bohr**3)                   (kbar)     P=       13.44
   0.00008673   0.00000000   0.00000000           12.76        0.00        0.00
   0.00000000   0.00008603   0.00000000            0.00       12.65        0.00
   0.00000000   0.00000000   0.00010135            0.00        0.00       14.91

     Volume is kept fixed: isostatic pressure set to zero
     Energy error            =      8.3E-05 Ry
     Gradient error          =      1.0E-03 Ry/Bohr
     Cell gradient error     =      1.5E+00 kbar

     number of scf cycles    =   4
     number of bfgs steps    =   3

     enthalpy           old  =    -156.4719538675 Ry
     enthalpy           new  =    -156.4720373447 Ry

     CASE: enthalpy          _new < enthalpy          _old

     new trust radius        =       0.0029858933 bohr
ibrav =      8
 celldm(1) =     12.41012736
 celldm(2) =      1.02572331
 celldm(3) =      0.69511933
Input lattice vectors:
     0.99864202     0.00000000     0.00000000
     0.00000000     1.02433039     0.00000000
     0.00000000     0.00000000     0.69417537
New lattice vectors in INITIAL alat:
     0.99864202     0.00000000     0.00000000
     0.00000000     1.02433039     0.00000000
     0.00000000     0.00000000     0.69417537
New lattice vectors in NEW alat (for information only):
     1.00000000     0.00000000     0.00000000
     0.00000000     1.02572331     0.00000000
     0.00000000     0.00000000     0.69511933
Discrepancy in bohr =     0.000000    0.000000    0.000000
     new conv_thr            =            8.3E-12 Ry

     new unit-cell volume =   1362.75663 a.u.^3 (   201.93970 Ang^3 )
     density =      2.74667 g/cm^3

CELL_PARAMETERS (alat= 12.42700298)
   0.998642020   0.000000000   0.000000000
   0.000000000   1.024330394   0.000000000
   0.000000000   0.000000000   0.694175369

ATOMIC_POSITIONS (crystal)
Ba               0.5000000000        0.5000000000        0.5001065549
Ba               0.0000000000        0.0000000000        0.9998934451
B                0.6100426983        0.2385700873        0.0000584657
B                0.3899573017        0.7614299127        0.0000584657
B                0.1100426983        0.2614299127        0.4999415343
B                0.8899573017        0.7385700873        0.4999415343
H                0.4313454245        0.2926706234        0.0002175672
H                0.5686545755        0.7073293766        0.0002175672
H                0.9313454245        0.2073293766        0.4997824328
H                0.0686545755        0.7926706234        0.4997824328
H                0.7238261729        0.3853310044       -0.0000052188
H                0.2761738271        0.6146689956       -0.0000052188
H                0.2238261729        0.1146689956        0.5000052188
H                0.7761738271        0.8853310044        0.5000052188
H                0.6394214286        0.1404976859        0.7772741510
H                0.3605785714        0.8595023141        0.7772741510
H                0.1394214286        0.3595023141        0.7227258490
H                0.8605785714        0.6404976859        0.7227258490
H                0.3603815362        0.8595451517        0.2227446826
H                0.6396184638        0.1404548483        0.2227446826
H                0.8603815362        0.6404548483        0.2772553174
H                0.1396184638        0.3595451517        0.2772553174



     Writing config-only to output data dir ./pwscf.save/ :
     XML data file
     NEW-OLD atomic charge density approx. for the potential

     total cpu time spent up to now is      685.2 secs

     Self-consistent Calculation

     iteration #  1     ecut=   100.00 Ry     beta= 0.70
     Davidson diagonalization with overlap
     ethr =  1.00E-06,  avg # of iterations =  2.0

     Threshold (ethr) on eigenvalues was too large:
     Diagonalizing with lowered threshold

     Davidson diagonalization with overlap
     ethr =  6.93E-09,  avg # of iterations =  2.9

     total cpu time spent up to now is      714.3 secs

     total energy              =    -156.47206078 Ry
     estimated scf accuracy    <       0.00000457 Ry

     iteration #  2     ecut=   100.00 Ry     beta= 0.70
     Davidson diagonalization with overlap
     ethr =  9.53E-09,  avg # of iterations =  2.0

     total cpu time spent up to now is      728.5 secs

     total energy              =    -156.47206182 Ry
     estimated scf accuracy    <       0.00000048 Ry

     iteration #  3     ecut=   100.00 Ry     beta= 0.70
     Davidson diagonalization with overlap
     ethr =  9.99E-10,  avg # of iterations =  2.0

     total cpu time spent up to now is      742.7 secs

     total energy              =    -156.47206189 Ry
     estimated scf accuracy    <       0.00000001 Ry

     iteration #  4     ecut=   100.00 Ry     beta= 0.70
     Davidson diagonalization with overlap
     ethr =  2.59E-11,  avg # of iterations =  4.9

     total cpu time spent up to now is      760.1 secs

     total energy              =    -156.47206189 Ry
     estimated scf accuracy    <          2.5E-09 Ry

     iteration #  5     ecut=   100.00 Ry     beta= 0.70
     Davidson diagonalization with overlap
     ethr =  5.19E-12,  avg # of iterations =  4.3

     total cpu time spent up to now is      776.9 secs

     total energy              =    -156.47206190 Ry
     estimated scf accuracy    <          6.1E-11 Ry

     iteration #  6     ecut=   100.00 Ry     beta= 0.70
     Davidson diagonalization with overlap
     ethr =  1.27E-13,  avg # of iterations =  5.7

     total cpu time spent up to now is      799.8 secs

     End of self-consistent calculation

          k = 0.0000 0.0000 0.0000 ( 23005 PWs)   bands (ev):

   -23.2797 -23.2669  -8.9603  -8.8485  -8.5914  -8.5419  -8.5187  -8.4340
    -5.7833  -4.7316  -3.8799  -3.7465  -1.5134  -0.5314  -0.3969  -0.0578
     0.3335   0.3616   0.4322   0.5352   0.7099   1.1974   1.2023   1.2587

          k = 0.0000 0.0000 0.3601 ( 23031 PWs)   bands (ev):

   -23.2693 -23.2602  -8.8406  -8.8404  -8.8129  -8.7638  -8.5681  -8.5411
    -5.1857  -4.4092  -4.1025  -4.0255  -1.0833  -0.8003  -0.3489  -0.2712
    -0.1083   0.0333   0.4457   0.7683   0.9532   1.0264   1.1058   1.2704

          k = 0.0000 0.0000-0.7203 ( 23048 PWs)   bands (ev):

   -23.2562 -23.2562  -9.1104  -9.1102  -8.6575  -8.6574  -8.5783  -8.5783
    -4.3767  -4.3763  -4.3184  -4.3178  -0.8501  -0.8495  -0.8366  -0.8351
     0.3209   0.3218   0.4701   0.4719   1.0875   1.0876   1.0947   1.0951

          k = 0.0000 0.2441 0.0000 ( 23067 PWs)   bands (ev):

   -23.2778 -23.2688  -8.9247  -8.8078  -8.6682  -8.5900  -8.5060  -8.4461
    -5.5444  -4.6190  -4.2300  -3.9052  -1.0900  -0.6086  -0.6045   0.2243
     0.2535   0.2968   0.5976   0.7320   0.8190   0.8332   1.0988   1.1718

          k = 0.0000 0.2441 0.3601 ( 23011 PWs)   bands (ev):

   -23.2679 -23.2615  -8.9019  -8.8538  -8.7423  -8.7254  -8.5818  -8.5714
    -5.0696  -4.4994  -4.1462  -4.0669  -0.8774  -0.8282  -0.6462  -0.0066
     0.0493   0.2653   0.2703   0.8278   0.8898   0.9676   1.0611   1.1273

          k = 0.0000 0.2441-0.7203 ( 23008 PWs)   bands (ev):

   -23.2562 -23.2562  -9.1280  -9.1278  -8.6317  -8.6317  -8.5769  -8.5769
    -4.7427  -4.7427  -3.9358  -3.9357  -0.9937  -0.9931  -0.6273  -0.6264
     0.4203   0.4207   0.4998   0.5014   0.8778   0.8778   1.0941   1.0943

          k = 0.0000-0.4881 0.0000 ( 22912 PWs)   bands (ev):

   -23.2732 -23.2732  -8.8188  -8.8188  -8.6997  -8.6997  -8.4757  -8.4757
    -4.9608  -4.9608  -4.2510  -4.2510  -0.7425  -0.7425  -0.0866  -0.0866
     0.1560   0.1560   0.7472   0.7472   0.8672   0.8672   1.0060   1.0060

          k = 0.0000-0.4881 0.3601 ( 23050 PWs)   bands (ev):

   -23.2647 -23.2647  -8.9030  -8.9030  -8.6628  -8.6628  -8.6274  -8.6274
    -4.7828  -4.7828  -4.1360  -4.1360  -0.8186  -0.8186  -0.3798  -0.3798
     0.3312   0.3312   0.6297   0.6297   0.8086   0.8086   1.0324   1.0324

          k = 0.0000-0.4881-0.7203 ( 23036 PWs)   bands (ev):

   -23.2562 -23.2562  -9.1440  -9.1440  -8.6095  -8.6095  -8.5732  -8.5732
    -4.9033  -4.9033  -3.7586  -3.7586  -1.0970  -1.0970  -0.3355  -0.3355
     0.3290   0.3290   0.5667   0.5667   0.6656   0.6656   1.1331   1.1331

          k = 0.2503 0.0000 0.0000 ( 23034 PWs)   bands (ev):

   -23.2778 -23.2687  -8.9103  -8.8270  -8.6502  -8.6169  -8.5060  -8.4461
    -5.5529  -4.7432  -3.9385  -3.9378  -1.3007  -0.3580  -0.3151  -0.2028
     0.3814   0.4362   0.4890   0.5809   0.6673   0.7174   1.1552   1.1969

          k = 0.2503 0.0000 0.3601 ( 23002 PWs)   bands (ev):

   -23.2679 -23.2615  -8.8914  -8.8698  -8.7801  -8.6931  -8.6035  -8.5553
    -5.0127  -4.3754  -4.1783  -4.1479  -1.0594  -0.7847  -0.6560  -0.0440
    -0.0430   0.2760   0.5204   0.6636   0.8269   0.9571   1.1817   1.2094

          k = 0.2503 0.0000-0.7203 ( 22982 PWs)   bands (ev):

   -23.2562 -23.2561  -9.1348  -9.1346  -8.6379  -8.6378  -8.5740  -8.5740
    -4.5111  -4.5108  -4.1439  -4.1436  -1.3722  -1.3717  -0.3242  -0.3240
     0.3301   0.3305   0.7231   0.7244   0.8565   0.8567   1.1238   1.1242
[...]
        18        H      tau(  18) = (   0.8587815   0.6539827   0.5036793  )
        19        H      tau(  19) = (   0.3644563   0.8874167   0.1542163  )
        20        H      tau(  20) = (   0.6242326   0.1401857   0.1542163  )
        21        H      tau(  21) = (   0.8588007   0.6539869   0.1952492  )
        22        H      tau(  22) = (   0.1298882   0.3736155   0.1952492  )

     number of k points=    27
                       cart. coord. in units 2pi/alat
        k(    1) = (   0.0000000   0.0000000   0.0000000), wk =   0.0312500
        k(    2) = (   0.0000000   0.0000000   0.3576891), wk =   0.0625000
        k(    3) = (   0.0000000   0.0000000  -0.7153782), wk =   0.0312500
        k(    4) = (   0.0000000   0.2432848   0.0000000), wk =   0.0625000
        k(    5) = (   0.0000000   0.2432848   0.3576891), wk =   0.1250000
        k(    6) = (   0.0000000   0.2432848  -0.7153782), wk =   0.0625000
        k(    7) = (   0.0000000  -0.4865695   0.0000000), wk =   0.0312500
        k(    8) = (   0.0000000  -0.4865695   0.3576891), wk =   0.0625000
        k(    9) = (   0.0000000  -0.4865695  -0.7153782), wk =   0.0312500
        k(   10) = (   0.2528601   0.0000000   0.0000000), wk =   0.0625000
        k(   11) = (   0.2528601   0.0000000   0.3576891), wk =   0.1250000
        k(   12) = (   0.2528601   0.0000000  -0.7153782), wk =   0.0625000
        k(   13) = (   0.2528601   0.2432848   0.0000000), wk =   0.1250000
        k(   14) = (   0.2528601   0.2432848   0.3576891), wk =   0.2500000
        k(   15) = (   0.2528601   0.2432848  -0.7153782), wk =   0.1250000
        k(   16) = (   0.2528601  -0.4865695   0.0000000), wk =   0.0625000
        k(   17) = (   0.2528601  -0.4865695   0.3576891), wk =   0.1250000
        k(   18) = (   0.2528601  -0.4865695  -0.7153782), wk =   0.0625000
        k(   19) = (  -0.5057203   0.0000000   0.0000000), wk =   0.0312500
        k(   20) = (  -0.5057203   0.0000000   0.3576891), wk =   0.0625000
        k(   21) = (  -0.5057203   0.0000000  -0.7153782), wk =   0.0312500
        k(   22) = (  -0.5057203   0.2432848   0.0000000), wk =   0.0625000
        k(   23) = (  -0.5057203   0.2432848   0.3576891), wk =   0.1250000
        k(   24) = (  -0.5057203   0.2432848  -0.7153782), wk =   0.0625000
        k(   25) = (  -0.5057203  -0.4865695   0.0000000), wk =   0.0312500
        k(   26) = (  -0.5057203  -0.4865695   0.3576891), wk =   0.0625000
        k(   27) = (  -0.5057203  -0.4865695  -0.7153782), wk =   0.0312500

     Dense  grid:   520787 G-vectors     FFT dimensions: ( 120, 120,  80)

     Smooth grid:   184049 G-vectors     FFT dimensions: (  80,  90,  60)

     Estimated max dynamical RAM per process >      88.86 MB

     Estimated total dynamical RAM >       2.08 GB

     Initial potential from superposition of free atoms

     starting charge      47.9682, renormalised to      48.0000
     Starting wfcs are   42 randomized atomic wfcs

     total cpu time spent up to now is     7811.0 secs

     Self-consistent Calculation

     iteration #  1     ecut=   100.00 Ry     beta= 0.70
     Davidson diagonalization with overlap
     ethr =  1.00E-06,  avg # of iterations = 11.1

     total cpu time spent up to now is     7855.4 secs

     total energy              =    -155.86482216 Ry
     estimated scf accuracy    <       2.17294387 Ry

     iteration #  2     ecut=   100.00 Ry     beta= 0.70
     Davidson diagonalization with overlap
     ethr =  4.53E-03,  avg # of iterations =  2.0

     total cpu time spent up to now is     7869.4 secs

     total energy              =    -156.40172401 Ry
     estimated scf accuracy    <       0.43943371 Ry

     iteration #  3     ecut=   100.00 Ry     beta= 0.70
     Davidson diagonalization with overlap
     ethr =  9.15E-04,  avg # of iterations =  2.0

     total cpu time spent up to now is     7883.4 secs

     total energy              =    -156.47023617 Ry
     estimated scf accuracy    <       0.00547775 Ry

     iteration #  4     ecut=   100.00 Ry     beta= 0.70
     Davidson diagonalization with overlap
     ethr =  1.14E-05,  avg # of iterations =  3.3

     total cpu time spent up to now is     7900.9 secs

     total energy              =    -156.47217285 Ry
     estimated scf accuracy    <       0.00206053 Ry

     iteration #  5     ecut=   100.00 Ry     beta= 0.70
     Davidson diagonalization with overlap
     ethr =  4.29E-06,  avg # of iterations =  3.8

     total cpu time spent up to now is     7916.1 secs

     total energy              =    -156.47279065 Ry
     estimated scf accuracy    <       0.00005069 Ry

     iteration #  6     ecut=   100.00 Ry     beta= 0.70
     Davidson diagonalization with overlap
     ethr =  1.06E-07,  avg # of iterations =  5.7

     total cpu time spent up to now is     7938.2 secs

     total energy              =    -156.47287240 Ry
     estimated scf accuracy    <       0.00001008 Ry

     iteration #  7     ecut=   100.00 Ry     beta= 0.70
     Davidson diagonalization with overlap
     ethr =  2.10E-08,  avg # of iterations =  3.8

     total cpu time spent up to now is     7953.9 secs

     total energy              =    -156.47287590 Ry
     estimated scf accuracy    <       0.00000014 Ry

     iteration #  8     ecut=   100.00 Ry     beta= 0.70
     Davidson diagonalization with overlap
     ethr =  2.83E-10,  avg # of iterations =  6.6

     total cpu time spent up to now is     7978.8 secs

     total energy              =    -156.47287615 Ry
     estimated scf accuracy    <       0.00000005 Ry

     iteration #  9     ecut=   100.00 Ry     beta= 0.70
     Davidson diagonalization with overlap
     ethr =  1.04E-10,  avg # of iterations =  2.4

     total cpu time spent up to now is     7993.0 secs

     total energy              =    -156.47287616 Ry
     estimated scf accuracy    <          1.2E-09 Ry

     iteration # 10     ecut=   100.00 Ry     beta= 0.70
     Davidson diagonalization with overlap
     ethr =  2.42E-12,  avg # of iterations =  6.2

     total cpu time spent up to now is     8017.1 secs

     total energy              =    -156.47287616 Ry
     estimated scf accuracy    <          2.4E-10 Ry

     iteration # 11     ecut=   100.00 Ry     beta= 0.70
     Davidson diagonalization with overlap
     ethr =  5.03E-13,  avg # of iterations =  3.5

     total cpu time spent up to now is     8032.5 secs

     total energy              =    -156.47287616 Ry
     estimated scf accuracy    <          7.7E-12 Ry

     iteration # 12     ecut=   100.00 Ry     beta= 0.70
     Davidson diagonalization with overlap
     ethr =  1.00E-13,  avg # of iterations =  3.8

     total cpu time spent up to now is     8047.7 secs

     total energy              =    -156.47287616 Ry
     estimated scf accuracy    <          1.5E-12 Ry

     iteration # 13     ecut=   100.00 Ry     beta= 0.70
     Davidson diagonalization with overlap
     ethr =  1.00E-13,  avg # of iterations =  1.0

     total cpu time spent up to now is     8058.7 secs

     End of self-consistent calculation

          k = 0.0000 0.0000 0.0000 ( 23017 PWs)   bands (ev):

   -23.3142 -23.3015  -8.9678  -8.8461  -8.6061  -8.5613  -8.5440  -8.4611
    -5.7709  -4.7205  -3.8842  -3.7082  -1.4866  -0.5295  -0.3966  -0.0671
     0.3846   0.4011   0.4754   0.6394   0.6922   1.2317   1.2335   1.2769

          k = 0.0000 0.0000 0.3577 ( 23016 PWs)   bands (ev):

   -23.3046 -23.2957  -8.8535  -8.8413  -8.8127  -8.7698  -8.5857  -8.5622
    -5.2036  -4.4295  -4.0873  -3.9832  -1.0797  -0.7440  -0.2685  -0.2264
    -0.1292   0.0290   0.4423   0.7778   0.9696   1.0762   1.1686   1.3207

          k = 0.0000 0.0000-0.7154 ( 23024 PWs)   bands (ev):

   -23.2924 -23.2924  -9.0930  -9.0930  -8.6776  -8.6775  -8.5972  -8.5972
    -4.4213  -4.4213  -4.2757  -4.2756  -0.8439  -0.8439  -0.7404  -0.7404
     0.3127   0.3129   0.4646   0.4646   1.1136   1.1137   1.1631   1.1632

          k = 0.0000 0.2433 0.0000 ( 23015 PWs)   bands (ev):

   -23.3123 -23.3034  -8.9326  -8.8075  -8.6818  -8.6060  -8.5315  -8.4729
    -5.5325  -4.5957  -4.2430  -3.8778  -1.0533  -0.6031  -0.5887   0.2358
     0.2460   0.2967   0.6825   0.8126   0.8478   0.8530   1.1310   1.2024

          k = 0.0000 0.2433 0.3577 ( 23031 PWs)   bands (ev):

   -23.3033 -23.2970  -8.9066  -8.8551  -8.7514  -8.7328  -8.5980  -8.5906
    -5.0876  -4.5176  -4.1305  -4.0303  -0.8684  -0.7730  -0.5845   0.0041
     0.0905   0.2472   0.2786   0.8505   0.8998   1.0250   1.1003   1.1712

          k = 0.0000 0.2433-0.7154 ( 23016 PWs)   bands (ev):

   -23.2924 -23.2924  -9.1115  -9.1115  -8.6514  -8.6514  -8.5956  -8.5956
    -4.7477  -4.7477  -3.9341  -3.9341  -0.8911  -0.8911  -0.6230  -0.6229
     0.4019   0.4021   0.5004   0.5004   0.9030   0.9030   1.1547   1.1547

          k = 0.0000-0.4866 0.0000 ( 22980 PWs)   bands (ev):

   -23.3078 -23.3078  -8.8276  -8.8276  -8.7087  -8.7087  -8.5019  -8.5019
    -4.9455  -4.9455  -4.2453  -4.2453  -0.7025  -0.7025  -0.0823  -0.0823
     0.1484   0.1484   0.7750   0.7750   0.9402   0.9402   1.0454   1.0454

          k = 0.0000-0.4866 0.3577 ( 23062 PWs)   bands (ev):

   -23.3001 -23.3001  -8.9058  -8.9058  -8.6721  -8.6721  -8.6440  -8.6440
    -4.8005  -4.8005  -4.1118  -4.1118  -0.7596  -0.7596  -0.3713  -0.3713
     0.3785   0.3785   0.6029   0.6029   0.8562   0.8562   1.0648   1.0648

          k = 0.0000-0.4866-0.7154 ( 23052 PWs)   bands (ev):

   -23.2924 -23.2924  -9.1283  -9.1283  -8.6294  -8.6294  -8.5913  -8.5913
    -4.9060  -4.9060  -3.7604  -3.7604  -0.9875  -0.9875  -0.3215  -0.3215
     0.2807   0.2807   0.5680   0.5680   0.7176   0.7176   1.1703   1.1703

          k = 0.2529 0.0000 0.0000 ( 23035 PWs)   bands (ev):

   -23.3123 -23.3033  -8.9184  -8.8295  -8.6632  -8.6349  -8.5315  -8.4729
    -5.5370  -4.7304  -3.9369  -3.9025  -1.2812  -0.3413  -0.3177  -0.1841
     0.3737   0.4726   0.5267   0.6761   0.7055   0.7241   1.1857   1.2227

          k = 0.2529 0.0000 0.3577 ( 23022 PWs)   bands (ev):

   -23.3033 -23.2969  -8.8938  -8.8748  -8.7899  -8.7015  -8.6203  -8.5750
    -5.0227  -4.3934  -4.1369  -4.1325  -1.0466  -0.7594  -0.6034  -0.0533
    -0.0447   0.3011   0.5636   0.7195   0.8457   0.9736   1.2357   1.2640

          k = 0.2529 0.0000-0.7154 ( 23028 PWs)   bands (ev):

   -23.2924 -23.2924  -9.1189  -9.1189  -8.6583  -8.6583  -8.5933  -8.5933
    -4.4819  -4.4819  -4.1712  -4.1712  -1.3351  -1.3351  -0.2869  -0.2868
     0.3095   0.3097   0.7492   0.7493   0.9239   0.9241   1.1660   1.1661

          k = 0.2529 0.2433 0.0000 ( 22998 PWs)   bands (ev):

   -23.3109 -23.3046  -8.9556  -8.8038  -8.7338  -8.5675  -8.5224  -8.4810
    -5.3722  -4.6586  -4.2535  -3.9504  -0.9307  -0.5628  -0.3476   0.1321
     0.1852   0.2370   0.6436   0.8054   0.8442   0.8982   0.9140   1.1232

          k = 0.2529 0.2433 0.3577 ( 23017 PWs)   bands (ev):

   -23.3023 -23.2978  -8.8992  -8.8444  -8.8431  -8.6728  -8.6381  -8.5651
    -4.9248  -4.4444  -4.2300  -4.1264  -1.0012  -0.7218  -0.6010  -0.0059
     0.1514   0.3554   0.4483   0.6927   0.8519   0.9516   1.1292   1.2263

          k = 0.2529 0.2433-0.7154 ( 23024 PWs)   bands (ev):

   -23.2923 -23.2923  -9.1275  -9.0954  -8.6909  -8.6322  -8.6049  -8.5929
    -4.7467  -4.5331  -4.1068  -3.8874  -1.2863  -1.2185  -0.3274  -0.2302
     0.2371   0.2610   0.6958   0.7609   0.9269   0.9619   1.0879   1.1543

          k = 0.2529-0.4866 0.0000 ( 22982 PWs)   bands (ev):

   -23.3078 -23.3078  -8.9263  -8.9263  -8.6116  -8.6116  -8.5012  -8.5012
    -4.9459  -4.9459  -4.2275  -4.2275  -0.5863  -0.5863  -0.0779  -0.0779
     0.1026   0.1026   0.6745   0.6745   0.9578   0.9578   0.9842   0.9842

          k = 0.2529-0.4866 0.3577 ( 23024 PWs)   bands (ev):

   -23.3000 -23.3000  -8.8930  -8.8930  -8.7599  -8.7599  -8.5821  -8.5821
    -4.6830  -4.6830  -4.1988  -4.1988  -0.8893  -0.8893  -0.2186  -0.2186
     0.3087   0.3087   0.6515   0.6515   0.8233   0.8233   1.1018   1.1018

          k = 0.2529-0.4866-0.7154 ( 23008 PWs)   bands (ev):

   -23.2923 -23.2923  -9.1056  -9.1056  -8.6660  -8.6660  -8.6017  -8.6017
    -4.7644  -4.7644  -3.8562  -3.8562  -1.1574  -1.1574  -0.3351  -0.3351
     0.3829   0.3829   0.5290   0.5290   0.9572   0.9572   1.1180   1.1180

          k =-0.5057 0.0000 0.0000 ( 22960 PWs)   bands (ev):

   -23.3077 -23.3077  -8.7955  -8.7955  -8.7582  -8.7582  -8.5018  -8.5018
    -5.0325  -5.0325  -4.0270  -4.0270  -0.8136  -0.8136   0.0468   0.0468
     0.4122   0.4122   0.5123   0.5123   0.6076   0.6076   1.0667   1.0667

          k =-0.5057 0.0000 0.3577 ( 23018 PWs)   bands (ev):

   -23.3000 -23.3000  -8.9140  -8.9140  -8.7068  -8.7068  -8.6215  -8.6215
    -4.6080  -4.6080  -4.2262  -4.2262  -0.9685  -0.9685  -0.3298  -0.3298
     0.3050   0.3050   0.5394   0.5394   0.9640   0.9640   1.2214   1.2214

          k =-0.5057 0.0000-0.7154 ( 23036 PWs)   bands (ev):

   -23.2923 -23.2923  -9.1427  -9.1427  -8.6421  -8.6421  -8.5885  -8.5885
    -4.5227  -4.5227  -4.0816  -4.0816  -1.5804  -1.5804   0.0621   0.0621
     0.3065   0.3065   0.5487   0.5487   1.1234   1.1234   1.1328   1.1328

          k =-0.5057 0.2433 0.0000 ( 23054 PWs)   bands (ev):

   -23.3077 -23.3077  -8.9253  -8.9253  -8.6212  -8.6212  -8.5012  -8.5012
    -4.9948  -4.9948  -4.1131  -4.1131  -0.6644  -0.6644   0.0757   0.0757
     0.1801   0.1801   0.4224   0.4224   0.8719   0.8719   1.0255   1.0255

          k =-0.5057 0.2433 0.3577 ( 22984 PWs)   bands (ev):

   -23.3000 -23.3000  -8.8987  -8.8987  -8.7648  -8.7648  -8.5816  -8.5816
    -4.5575  -4.5575  -4.2847  -4.2847  -0.9696  -0.9696  -0.2577  -0.2577
     0.3091   0.3091   0.6112   0.6112   0.9286   0.9286   1.1331   1.1331

          k =-0.5057 0.2433-0.7154 ( 22984 PWs)   bands (ev):

   -23.2923 -23.2923  -9.1137  -9.1137  -8.6693  -8.6693  -8.6021  -8.6021
    -4.5534  -4.5534  -4.0358  -4.0358  -1.4557  -1.4557  -0.1535  -0.1535
     0.3432   0.3432   0.6405   0.6405   1.0396   1.0396   1.1668   1.1668

          k =-0.5057-0.4866 0.0000 ( 23004 PWs)   bands (ev):

   -23.3077 -23.3077  -8.9842  -8.9842  -8.5552  -8.5552  -8.5006  -8.5006
    -4.9503  -4.9503  -4.2038  -4.2038  -0.4401  -0.4401  -0.1063  -0.1063
     0.0610   0.0610   0.6422   0.6422   0.8016   0.8016   1.0239   1.0239

          k =-0.5057-0.4866 0.3577 ( 22984 PWs)   bands (ev):

   -23.3000 -23.3000  -8.8726  -8.8726  -8.8165  -8.8165  -8.5589  -8.5589
    -4.4652  -4.4652  -4.3843  -4.3843  -0.9515  -0.9515  -0.2837  -0.2837
     0.5546   0.5546   0.6075   0.6075   0.8668   0.8668   0.9815   0.9815

          k =-0.5057-0.4866-0.7154 ( 22976 PWs)   bands (ev):

   -23.2923 -23.2923  -9.0794  -9.0794  -8.7056  -8.7056  -8.6119  -8.6119
    -4.5805  -4.5805  -3.9932  -3.9932  -1.2705  -1.2705  -0.4830  -0.4830
     0.6283   0.6283   0.6956   0.6956   0.8880   0.8880   1.1025   1.1025

     highest occupied level (ev):     1.3207

!    total energy              =    -156.47287616 Ry
     estimated scf accuracy    <          6.4E-14 Ry

     The total energy is the sum of the following terms:
     one-electron contribution =     -17.01222865 Ry
     hartree contribution      =      23.74601348 Ry
     xc contribution           =     -49.23333200 Ry
     ewald contribution        =    -113.97332899 Ry

     convergence has been achieved in  13 iterations

     Forces acting on atoms (cartesian axes, Ry/au):

     atom    1 type  2   force =     0.00000000    0.00000000   -0.00000617
     atom    2 type  2   force =     0.00000000    0.00000000    0.00000617
     atom    3 type  1   force =     0.00000112   -0.00000057    0.00000512
     atom    4 type  1   force =    -0.00000112    0.00000057    0.00000512
     atom    5 type  1   force =     0.00000112    0.00000057   -0.00000512
     atom    6 type  1   force =    -0.00000112   -0.00000057   -0.00000512
     atom    7 type  3   force =    -0.00000143   -0.00000053   -0.00000172
     atom    8 type  3   force =     0.00000143    0.00000053   -0.00000172
     atom    9 type  3   force =    -0.00000143    0.00000053    0.00000172
     atom   10 type  3   force =     0.00000143   -0.00000053    0.00000172
     atom   11 type  3   force =     0.00000232    0.00000184   -0.00000792
     atom   12 type  3   force =    -0.00000232   -0.00000184   -0.00000792
     atom   13 type  3   force =     0.00000232   -0.00000184    0.00000792
     atom   14 type  3   force =    -0.00000232    0.00000184    0.00000792
     atom   15 type  3   force =    -0.00000359    0.00000544    0.00000161
     atom   16 type  3   force =     0.00000359   -0.00000544    0.00000161
     atom   17 type  3   force =    -0.00000359   -0.00000544   -0.00000161
     atom   18 type  3   force =     0.00000359    0.00000544   -0.00000161
     atom   19 type  3   force =    -0.00000185    0.00000640    0.00000396
     atom   20 type  3   force =     0.00000185   -0.00000640    0.00000396
     atom   21 type  3   force =    -0.00000185   -0.00000640   -0.00000396
     atom   22 type  3   force =     0.00000185    0.00000640   -0.00000396

     Total force =     0.000030     Total SCF correction =     0.000000


     Computing stress (Cartesian axis) and pressure

          total   stress  (Ry/bohr**3)                   (kbar)     P=        9.64
   0.00006554   0.00000000   0.00000000            9.64        0.00        0.00
   0.00000000   0.00006555   0.00000000            0.00        9.64        0.00
   0.00000000   0.00000000   0.00006557            0.00        0.00        9.65


     Writing all to output data dir ./pwscf.save/ :
     XML data file, charge density, pseudopotentials, collected wavefunctions

     init_run     :     17.40s CPU     19.20s WALL (       2 calls)
     electrons    :   6436.86s CPU   6490.65s WALL (      55 calls)
     update_pot   :     11.92s CPU     13.48s WALL (      53 calls)
     forces       :    162.96s CPU    164.69s WALL (      55 calls)
     stress       :   1380.77s CPU   1384.07s WALL (      55 calls)

     Called by init_run:
     wfcinit      :     13.69s CPU     13.79s WALL (       2 calls)
     potinit      :      0.84s CPU      1.52s WALL (       2 calls)
     hinit0       :      1.26s CPU      2.18s WALL (       2 calls)

     Called by electrons:
     c_bands      :   5669.95s CPU   5709.63s WALL (     405 calls)
     sum_band     :    649.80s CPU    658.05s WALL (     405 calls)
     v_of_rho     :     51.84s CPU     54.09s WALL (     416 calls)
     newd         :     68.10s CPU     69.37s WALL (     416 calls)
     mix_rho      :      5.50s CPU      5.92s WALL (     405 calls)

     Called by c_bands:
     init_us_2    :    141.02s CPU    142.83s WALL (   24894 calls)
     cegterg      :   5009.41s CPU   5046.90s WALL (   10935 calls)

     Called by *egterg:
     cdiaghg      :     76.91s CPU     77.50s WALL (   43583 calls)
     h_psi        :   3518.82s CPU   3549.25s WALL (   46256 calls)
     s_psi        :    659.62s CPU    662.34s WALL (   46256 calls)
     g_psi        :     13.22s CPU     13.29s WALL (   35267 calls)

     Called by h_psi:
     h_psi:calbec :    583.66s CPU    587.06s WALL (   46256 calls)
     vloc_psi     :   2259.67s CPU   2284.03s WALL (   46256 calls)
     add_vuspsi   :    664.17s CPU    667.02s WALL (   46256 calls)

     General routines
     calbec       :   1108.48s CPU   1113.63s WALL (   64616 calls)
     fft          :     41.60s CPU     46.43s WALL (    6770 calls)
     ffts         :      2.40s CPU      3.23s WALL (     821 calls)
     fftw         :   2106.75s CPU   2128.97s WALL ( 1884560 calls)
     interpolate  :      4.11s CPU      5.10s WALL (     416 calls)

     Parallel routines

     PWSCF        :      2h13m CPU      2h14m WALL


   This run was terminated on:  17:45:27  11Jul2024            

=------------------------------------------------------------------------------=
   JOB DONE.
=------------------------------------------------------------------------------=
