
     Program PWSCF v.7.3.1 starts on 12Jul2024 at 14:14: 7 

     This program is part of the open-source Quantum ESPRESSO suite
     for quantum simulation of materials; please cite
         "P. Giannozzi et al., J. Phys.:Condens. Matter 21 395502 (2009);
         "P. Giannozzi et al., J. Phys.:Condens. Matter 29 465901 (2017);
         "P. Giannozzi et al., J. Chem. Phys. 152 154105 (2020);
          URL http://www.quantum-espresso.org", 
     in publications or presentations arising from this work. More details at
     http://www.quantum-espresso.org/quote

     Parallel version (MPI), running on    16 processors

     MPI processes distributed on     1 nodes
     61656 MiB available memory on the printing compute node when the environment starts

     Waiting for input...
     Reading input from standard input

     Current dimensions of program PWSCF are:
     Max number of different atomic species (ntypx) = 10
     Max number of k-points (npk) =  40000
     Max angular momentum in pseudopotentials (lmaxx) =  4

     R & G space division:  proc/nbgrp/npool/nimage =      16
     Subspace diagonalization in iterative solution of the eigenvalue problem:
     a serial algorithm will be used


     Parallelization info
     --------------------
     sticks:   dense  smooth     PW     G-vecs:    dense   smooth      PW
     Min         640     319     88                33397    11812    1712
     Max         642     321     89                33400    11814    1714
     Sum       10247    5119   1411               534373   189009   27399

     Using Slab Decomposition


     Title: 
     volume variation                                                           


     bravais-lattice index     =            8
     lattice parameter (alat)  =      12.5345  a.u.
     unit-cell volume          =    1398.4309 (a.u.)^3
     number of atoms/cell      =           22
     number of atomic types    =            3
     number of electrons       =        48.00
     number of Kohn-Sham states=           24
     kinetic-energy cutoff     =     100.0000  Ry
     charge density cutoff     =     800.0000  Ry
     scf convergence threshold =      1.0E-10
     mixing beta               =       0.7000
     number of iterations used =            8  plain     mixing
     energy convergence thresh.=      1.0E-05
     force convergence thresh. =      1.0E-05
     press convergence thresh. =      5.0E-01
     Exchange-correlation= PBESOL
                           (   1   4  10   8   0   0   0)
     nstep                     =          300


     celldm(1)=  12.534508  celldm(2)=   1.025571  celldm(3)=   0.692394
     celldm(4)=   0.000000  celldm(5)=   0.000000  celldm(6)=   0.000000

     crystal axes: (cart. coord. in units of alat)
               a(1) = (   1.000000   0.000000   0.000000 )  
               a(2) = (   0.000000   1.025571   0.000000 )  
               a(3) = (   0.000000   0.000000   0.692394 )  

     reciprocal axes: (cart. coord. in units 2 pi/alat)
               b(1) = (  1.000000  0.000000  0.000000 )  
               b(2) = (  0.000000  0.975067  0.000000 )  
               b(3) = (  0.000000  0.000000  1.444264 )  


     PseudoPot. # 1 for B  read from file:
     /home/mehlhorn/pseudos/b_pbesol_v1.4.uspp.F.UPF
     MD5 check sum: 369b69bef2c3aeed4453bd8b804fd6a8
     Pseudo is Ultrasoft + core correction, Zval =  3.0
     Generated by new atomic code, or converted to UPF format
     Using radial grid of  781 points,  4 beta functions with: 
                l(1) =   0
                l(2) =   0
                l(3) =   1
                l(4) =   1
     Q(r) pseudized with  8 coefficients,  rinner =    1.100   1.100   1.100


     PseudoPot. # 2 for Ba read from file:
     /home/mehlhorn/pseudos/Ba.nc.z_10.oncvpsp4.dojo.v4-sp.upf
     MD5 check sum: c10ed334bb677c0554edec7181ce9143
     Pseudo is Norm-conserving + core correction, Zval = 10.0
     Generated using ONCVPSP code by D. R. Hamann
     Using radial grid of 1938 points,  8 beta functions with: 
                l(1) =   0
                l(2) =   0
                l(3) =   1
                l(4) =   1
                l(5) =   2
                l(6) =   2
                l(7) =   3
                l(8) =   3

     PseudoPot. # 3 for H  read from file:
     /home/mehlhorn/pseudos/H_ONCV_PBEsol-1.0.upf
     MD5 check sum: 398ef8f67c0a7342c05c87c5e19ea467
     Pseudo is Norm-conserving, Zval =  1.0
     Generated using ONCVPSP code by D. R. Hamann
     Using radial grid of 1180 points,  2 beta functions with: 
                l(1) =   0
                l(2) =   0

     atomic species   valence    mass     pseudopotential
     B                 3.00    10.81100     B ( 1.00)
     Ba               10.00   137.32700     Ba( 1.00)
     H                 1.00     1.00794     H ( 1.00)

      4 Sym. Ops. (no inversion) found ( 2 have fractional translation)



   Cartesian axes

     site n.     atom                  positions (alat units)
         1        Ba     tau(   1) = (   0.5000000   0.5127855   0.3462657  )
         2        Ba     tau(   2) = (   0.0000000   0.0000000   0.6923255  )
         3        B      tau(   3) = (   0.6102570   0.2453190   0.0000455  )
         4        B      tau(   4) = (   0.3897430   0.7802519   0.0000455  )
         5        B      tau(   5) = (   0.1102570   0.2674665   0.3461516  )
         6        B      tau(   6) = (   0.8897430   0.7581045   0.3461516  )
         7        H      tau(   7) = (   0.4340973   0.2996264   0.0001599  )
         8        H      tau(   8) = (   0.5659027   0.7259445   0.0001599  )
         9        H      tau(   9) = (   0.9340973   0.2131590   0.3460372  )
        10        H      tau(  10) = (   0.0659027   0.8124119   0.3460372  )
        11        H      tau(  11) = (   0.7220603   0.3933629  -0.0000058  )
        12        H      tau(  12) = (   0.2779397   0.6322081  -0.0000058  )
        13        H      tau(  13) = (   0.2220603   0.1194226   0.3462029  )
        14        H      tau(  14) = (   0.7779397   0.9061483   0.3462029  )
        15        H      tau(  15) = (   0.6392499   0.1457279   0.5404125  )
        16        H      tau(  16) = (   0.3607501   0.8798430   0.5404125  )
        17        H      tau(  17) = (   0.1392499   0.3670576   0.4981787  )
        18        H      tau(  18) = (   0.8607501   0.6585133   0.4981787  )
        19        H      tau(  19) = (   0.3605328   0.8798946   0.1519977  )
        20        H      tau(  20) = (   0.6394672   0.1456763   0.1519977  )
        21        H      tau(  21) = (   0.8605328   0.6584617   0.1941994  )
        22        H      tau(  22) = (   0.1394672   0.3671092   0.1941994  )

     number of k points=    27
                       cart. coord. in units 2pi/alat
        k(    1) = (   0.0000000   0.0000000   0.0000000), wk =   0.0312500
        k(    2) = (   0.0000000   0.0000000   0.3610660), wk =   0.0625000
        k(    3) = (   0.0000000   0.0000000  -0.7221320), wk =   0.0312500
        k(    4) = (   0.0000000   0.2437667   0.0000000), wk =   0.0625000
        k(    5) = (   0.0000000   0.2437667   0.3610660), wk =   0.1250000
        k(    6) = (   0.0000000   0.2437667  -0.7221320), wk =   0.0625000
        k(    7) = (   0.0000000  -0.4875333   0.0000000), wk =   0.0312500
        k(    8) = (   0.0000000  -0.4875333   0.3610660), wk =   0.0625000
        k(    9) = (   0.0000000  -0.4875333  -0.7221320), wk =   0.0312500
        k(   10) = (   0.2500000   0.0000000   0.0000000), wk =   0.0625000
        k(   11) = (   0.2500000   0.0000000   0.3610660), wk =   0.1250000
        k(   12) = (   0.2500000   0.0000000  -0.7221320), wk =   0.0625000
        k(   13) = (   0.2500000   0.2437667   0.0000000), wk =   0.1250000
        k(   14) = (   0.2500000   0.2437667   0.3610660), wk =   0.2500000
        k(   15) = (   0.2500000   0.2437667  -0.7221320), wk =   0.1250000
        k(   16) = (   0.2500000  -0.4875333   0.0000000), wk =   0.0625000
        k(   17) = (   0.2500000  -0.4875333   0.3610660), wk =   0.1250000
        k(   18) = (   0.2500000  -0.4875333  -0.7221320), wk =   0.0625000
        k(   19) = (  -0.5000000   0.0000000   0.0000000), wk =   0.0312500
        k(   20) = (  -0.5000000   0.0000000   0.3610660), wk =   0.0625000
        k(   21) = (  -0.5000000   0.0000000  -0.7221320), wk =   0.0312500
        k(   22) = (  -0.5000000   0.2437667   0.0000000), wk =   0.0625000
        k(   23) = (  -0.5000000   0.2437667   0.3610660), wk =   0.1250000
        k(   24) = (  -0.5000000   0.2437667  -0.7221320), wk =   0.0625000
        k(   25) = (  -0.5000000  -0.4875333   0.0000000), wk =   0.0312500
        k(   26) = (  -0.5000000  -0.4875333   0.3610660), wk =   0.0625000
        k(   27) = (  -0.5000000  -0.4875333  -0.7221320), wk =   0.0312500

     Dense  grid:   534373 G-vectors     FFT dimensions: ( 120, 120,  80)

     Smooth grid:   189009 G-vectors     FFT dimensions: (  80,  90,  60)

     Estimated max dynamical RAM per process >     117.25 MB

     Estimated total dynamical RAM >       1.83 GB

     Initial potential from superposition of free atoms

     starting charge      47.9682, renormalised to      48.0000
     Starting wfcs are   42 randomized atomic wfcs

     total cpu time spent up to now is        4.8 secs

     Self-consistent Calculation

     iteration #  1     ecut=   100.00 Ry     beta= 0.70
     Davidson diagonalization with overlap
     ethr =  1.00E-02,  avg # of iterations =  2.0

     total cpu time spent up to now is       11.4 secs

     total energy              =    -155.91406612 Ry
     estimated scf accuracy    <       2.13384089 Ry

     iteration #  2     ecut=   100.00 Ry     beta= 0.70
     Davidson diagonalization with overlap
     ethr =  4.45E-03,  avg # of iterations =  2.0

     total cpu time spent up to now is       17.8 secs

     total energy              =    -156.40774349 Ry
     estimated scf accuracy    <       0.37284365 Ry

     iteration #  3     ecut=   100.00 Ry     beta= 0.70
     Davidson diagonalization with overlap
     ethr =  7.77E-04,  avg # of iterations =  2.0

     total cpu time spent up to now is       24.2 secs

     total energy              =    -156.46980044 Ry
     estimated scf accuracy    <       0.00495108 Ry

     iteration #  4     ecut=   100.00 Ry     beta= 0.70
     Davidson diagonalization with overlap
     ethr =  1.03E-05,  avg # of iterations =  5.1

     total cpu time spent up to now is       33.8 secs

     total energy              =    -156.47298086 Ry
     estimated scf accuracy    <       0.00166117 Ry

     iteration #  5     ecut=   100.00 Ry     beta= 0.70
     Davidson diagonalization with overlap
     ethr =  3.46E-06,  avg # of iterations =  3.1

     total cpu time spent up to now is       40.4 secs

     total energy              =    -156.47355662 Ry
     estimated scf accuracy    <       0.00016288 Ry

     iteration #  6     ecut=   100.00 Ry     beta= 0.70
     Davidson diagonalization with overlap
     ethr =  3.39E-07,  avg # of iterations =  3.9

     total cpu time spent up to now is       47.8 secs

     total energy              =    -156.47361933 Ry
     estimated scf accuracy    <       0.00000107 Ry

     iteration #  7     ecut=   100.00 Ry     beta= 0.70
     Davidson diagonalization with overlap
     ethr =  2.24E-09,  avg # of iterations =  8.9

     total cpu time spent up to now is       63.3 secs

     total energy              =    -156.47362780 Ry
     estimated scf accuracy    <       0.00000097 Ry

     iteration #  8     ecut=   100.00 Ry     beta= 0.70
     Davidson diagonalization with overlap
     ethr =  2.02E-09,  avg # of iterations =  2.0

     total cpu time spent up to now is       69.7 secs

     total energy              =    -156.47362806 Ry
     estimated scf accuracy    <       0.00000005 Ry

     iteration #  9     ecut=   100.00 Ry     beta= 0.70
     Davidson diagonalization with overlap
     ethr =  1.14E-10,  avg # of iterations =  4.6

     total cpu time spent up to now is       77.4 secs

     total energy              =    -156.47362807 Ry
     estimated scf accuracy    <          3.8E-09 Ry

     iteration # 10     ecut=   100.00 Ry     beta= 0.70
     Davidson diagonalization with overlap
     ethr =  7.89E-12,  avg # of iterations =  5.3

     total cpu time spent up to now is       85.8 secs

     total energy              =    -156.47362807 Ry
     estimated scf accuracy    <          1.6E-09 Ry

     iteration # 11     ecut=   100.00 Ry     beta= 0.70
     Davidson diagonalization with overlap
     ethr =  3.25E-12,  avg # of iterations =  2.3

     total cpu time spent up to now is       92.2 secs

     End of self-consistent calculation

          k = 0.0000 0.0000 0.0000 ( 23621 PWs)   bands (ev):

   -23.5730 -23.5622  -9.1924  -9.0895  -8.8619  -8.8161  -8.7887  -8.7146
    -5.9249  -4.9377  -4.1641  -4.0262  -1.6112  -0.6809  -0.5686  -0.2460
     0.1524   0.1831   0.2440   0.3476   0.5238   0.9535   0.9638   1.0073

          k = 0.0000 0.0000 0.3611 ( 23590 PWs)   bands (ev):

   -23.5638 -23.5561  -9.0833  -9.0823  -9.0574  -9.0120  -8.8404  -8.8152
    -5.3702  -4.6392  -4.3669  -4.2837  -1.1986  -0.9355  -0.4810  -0.4325
    -0.2709  -0.1412   0.2417   0.5431   0.7314   0.7844   0.8693   1.0181

          k = 0.0000 0.0000-0.7221 ( 23652 PWs)   bands (ev):

   -23.5522 -23.5522  -9.3333  -9.3331  -8.9144  -8.9143  -8.8497  -8.8497
    -4.6104  -4.6100  -4.5590  -4.5584  -0.9634  -0.9629  -0.9528  -0.9512
     0.1339   0.1348   0.2486   0.2504   0.8346   0.8349   0.8505   0.8507

          k = 0.0000 0.2438 0.0000 ( 23557 PWs)   bands (ev):

   -23.5714 -23.5637  -9.1593  -9.0537  -8.9275  -8.8584  -8.7776  -8.7252
    -5.7051  -4.8357  -4.4788  -4.1713  -1.2222  -0.7663  -0.7538   0.0526
     0.0780   0.0907   0.3999   0.5325   0.6078   0.6213   0.8601   0.9344

          k = 0.0000 0.2438 0.3611 ( 23598 PWs)   bands (ev):

   -23.5626 -23.5572  -9.1369  -9.0933  -8.9958  -8.9787  -8.8523  -8.8415
    -5.2607  -4.7216  -4.4074  -4.3230  -1.0029  -0.9609  -0.7752  -0.1719
    -0.1280   0.0673   0.0854   0.5991   0.6667   0.7262   0.8303   0.8887

          k = 0.0000 0.2438-0.7221 ( 23610 PWs)   bands (ev):

   -23.5522 -23.5522  -9.3488  -9.3487  -8.8920  -8.8919  -8.8487  -8.8487
    -4.9469  -4.9469  -4.2080  -4.2080  -1.0998  -1.0991  -0.7567  -0.7559
     0.2204   0.2206   0.2826   0.2842   0.6492   0.6494   0.8431   0.8434

          k = 0.0000-0.4875 0.0000 ( 23608 PWs)   bands (ev):

   -23.5676 -23.5676  -9.0637  -9.0637  -8.9545  -8.9545  -8.7512  -8.7512
    -5.1630  -5.1630  -4.4894  -4.4894  -0.8959  -0.8959  -0.2630  -0.2630
    -0.0122  -0.0122   0.5188   0.5188   0.6625   0.6625   0.7828   0.7828

          k = 0.0000-0.4875 0.3611 ( 23596 PWs)   bands (ev):

   -23.5599 -23.5599  -9.1372  -9.1372  -8.9269  -8.9269  -8.8890  -8.8890
    -4.9895  -4.9895  -4.3919  -4.3919  -0.9469  -0.9469  -0.5285  -0.5285
     0.1310   0.1310   0.4239   0.4239   0.5777   0.5777   0.8026   0.8026

          k = 0.0000-0.4875-0.7221 ( 23612 PWs)   bands (ev):

   -23.5522 -23.5522  -9.3630  -9.3630  -8.8728  -8.8728  -8.8456  -8.8456
    -5.0940  -5.0940  -4.0464  -4.0464  -1.1972  -1.1972  -0.4861  -0.4861
     0.1336   0.1336   0.3563   0.3563   0.4441   0.4441   0.8813   0.8813

          k = 0.2500 0.0000 0.0000 ( 23618 PWs)   bands (ev):

   -23.5714 -23.5637  -9.1473  -9.0689  -8.9138  -8.8801  -8.7776  -8.7253
    -5.7144  -4.9567  -4.2148  -4.1989  -1.4096  -0.5182  -0.4856  -0.3747
     0.2020   0.2473   0.3073   0.3742   0.4775   0.5048   0.9132   0.9482

          k = 0.2500 0.0000 0.3611 ( 23624 PWs)   bands (ev):

   -23.5626 -23.5572  -9.1270  -9.1071  -9.0290  -8.9509  -8.8711  -8.8276
    -5.2099  -4.6133  -4.4246  -4.4062  -1.1704  -0.9217  -0.7763  -0.2208
    -0.2177   0.0832   0.3117   0.4520   0.6039   0.7329   0.9348   0.9676

          k = 0.2500 0.0000-0.7221 ( 23622 PWs)   bands (ev):

   -23.5522 -23.5522  -9.3546  -9.3545  -8.8976  -8.8975  -8.8459  -8.8459
    -4.7326  -4.7322  -4.4016  -4.4013  -1.4596  -1.4591  -0.4756  -0.4752
     0.1344   0.1348   0.4984   0.4997   0.6253   0.6253   0.8787   0.8791

          k = 0.2500 0.2438 0.0000 ( 23618 PWs)   bands (ev):

   -23.5703 -23.5648  -9.1806  -9.0411  -8.9769  -8.8240  -8.7696  -8.7326
    -5.5643  -4.9102  -4.4869  -4.2244  -1.1032  -0.7463  -0.5360  -0.0559
     0.0140   0.0685   0.3860   0.5420   0.5524   0.6431   0.7062   0.8634

          k = 0.2500 0.2438 0.3611 ( 23610 PWs)   bands (ev):

   -23.5618 -23.5579  -9.1306  -9.0835  -9.0738  -8.9265  -8.8853  -8.8190
    -5.1184  -4.6637  -4.5006  -4.4032  -1.1349  -0.8911  -0.7839  -0.2070
    -0.0494   0.1389   0.2424   0.4757   0.5771   0.6940   0.8539   0.9442

          k = 0.2500 0.2438-0.7221 ( 23636 PWs)   bands (ev):

   -23.5521 -23.5521  -9.3624  -9.3349  -8.9242  -8.8751  -8.8551  -8.8463
    -4.9636  -4.7529  -4.3712  -4.1539  -1.4355  -1.3442  -0.5554  -0.4256
     0.0797   0.0851   0.4654   0.5418   0.6289   0.6848   0.8258   0.8525

          k = 0.2500-0.4875 0.0000 ( 23590 PWs)   bands (ev):

   -23.5675 -23.5675  -9.1520  -9.1520  -8.8656  -8.8656  -8.7507  -8.7507
    -5.1798  -5.1798  -4.4584  -4.4584  -0.8027  -0.8027  -0.2724  -0.2724
    -0.0550  -0.0550   0.4452   0.4452   0.7055   0.7055   0.7168   0.7168

          k = 0.2500-0.4875 0.3611 ( 23602 PWs)   bands (ev):

   -23.5598 -23.5598  -9.1235  -9.1235  -9.0029  -9.0029  -8.8359  -8.8359
    -4.8923  -4.8923  -4.4660  -4.4660  -1.0437  -1.0437  -0.4390  -0.4390
     0.0969   0.0969   0.4382   0.4382   0.5925   0.5925   0.8247   0.8247

          k = 0.2500-0.4875-0.7221 ( 23628 PWs)   bands (ev):

   -23.5521 -23.5521  -9.3440  -9.3440  -8.9025  -8.9025  -8.8535  -8.8535
    -4.9699  -4.9699  -4.1376  -4.1376  -1.3142  -1.3142  -0.5529  -0.5529
     0.2039   0.2039   0.3377   0.3377   0.6846   0.6846   0.8400   0.8400

          k =-0.5000 0.0000 0.0000 ( 23624 PWs)   bands (ev):

   -23.5675 -23.5675  -9.0352  -9.0352  -8.9939  -8.9939  -8.7512  -8.7512
    -5.2507  -5.2507  -4.3031  -4.3031  -0.9652  -0.9652  -0.1359  -0.1359
     0.2488   0.2488   0.2587   0.2587   0.3515   0.3515   0.7915   0.7915

          k =-0.5000 0.0000 0.3611 ( 23600 PWs)   bands (ev):

   -23.5598 -23.5598  -9.1425  -9.1425  -8.9532  -8.9532  -8.8714  -8.8714
    -4.8354  -4.8354  -4.4889  -4.4889  -1.0978  -1.0978  -0.5057  -0.5057
     0.1012   0.1012   0.3018   0.3018   0.6958   0.6958   0.9224   0.9224

          k =-0.5000 0.0000-0.7221 ( 23668 PWs)   bands (ev):

   -23.5521 -23.5521  -9.3743  -9.3743  -8.8836  -8.8836  -8.8408  -8.8408
    -4.7885  -4.7885  -4.3069  -4.3069  -1.6829  -1.6829  -0.1498  -0.1498
     0.1344   0.1344   0.3036   0.3036   0.8262   0.8262   0.8281   0.8281

          k =-0.5000 0.2438 0.0000 ( 23626 PWs)   bands (ev):

   -23.5675 -23.5675  -9.1501  -9.1501  -8.8730  -8.8730  -8.7507  -8.7507
    -5.2257  -5.2257  -4.3633  -4.3633  -0.8530  -0.8530  -0.1428  -0.1428
     0.0153   0.0153   0.2158   0.2158   0.6099   0.6099   0.7721   0.7721

          k =-0.5000 0.2438 0.3611 ( 23612 PWs)   bands (ev):

   -23.5598 -23.5598  -9.1270  -9.1270  -9.0076  -9.0076  -8.8347  -8.8347
    -4.7929  -4.7929  -4.5365  -4.5365  -1.1043  -1.1043  -0.4726  -0.4726
     0.1357   0.1357   0.3487   0.3487   0.6882   0.6882   0.8505   0.8505

          k =-0.5000 0.2438-0.7221 ( 23628 PWs)   bands (ev):

   -23.5521 -23.5521  -9.3502  -9.3502  -8.9057  -8.9057  -8.8527  -8.8527
    -4.7978  -4.7978  -4.2870  -4.2870  -1.5707  -1.5707  -0.3761  -0.3761
     0.1793   0.1793   0.3849   0.3849   0.7499   0.7499   0.8985   0.8985

          k =-0.5000-0.4875 0.0000 ( 23600 PWs)   bands (ev):

   -23.5675 -23.5675  -9.2035  -9.2035  -8.8134  -8.8134  -8.7503  -8.7503
    -5.1977  -5.1977  -4.4252  -4.4252  -0.6946  -0.6946  -0.2977  -0.2977
    -0.0935  -0.0935   0.4066   0.4066   0.6147   0.6147   0.7441   0.7441

          k =-0.5000-0.4875 0.3611 ( 23592 PWs)   bands (ev):

   -23.5598 -23.5598  -9.0961  -9.0961  -9.0622  -9.0622  -8.8134  -8.8134
    -4.7250  -4.7250  -4.6091  -4.6091  -1.0939  -1.0939  -0.5093  -0.5093
     0.2948   0.2948   0.4352   0.4352   0.5856   0.5856   0.7607   0.7607

          k =-0.5000-0.4875-0.7221 ( 23624 PWs)   bands (ev):

   -23.5521 -23.5521  -9.3226  -9.3226  -8.9348  -8.9348  -8.8609  -8.8609
    -4.8074  -4.8074  -4.2666  -4.2666  -1.4006  -1.4006  -0.6885  -0.6885
     0.4176   0.4176   0.4640   0.4640   0.6111   0.6111   0.8619   0.8619

     highest occupied level (ev):     1.0181

!    total energy              =    -156.47362807 Ry
     estimated scf accuracy    <          4.8E-11 Ry

     The total energy is the sum of the following terms:
     one-electron contribution =     -20.35604521 Ry
     hartree contribution      =      25.01819574 Ry
     xc contribution           =     -49.24931032 Ry
     ewald contribution        =    -111.88646829 Ry

     convergence has been achieved in  11 iterations

     Forces acting on atoms (cartesian axes, Ry/au):

     atom    1 type  2   force =     0.00000000    0.00000000    0.00001456
     atom    2 type  2   force =     0.00000000    0.00000000   -0.00001456
     atom    3 type  1   force =    -0.00013837   -0.00066732   -0.00001172
     atom    4 type  1   force =     0.00013837    0.00066732   -0.00001172
     atom    5 type  1   force =    -0.00013837    0.00066732    0.00001172
     atom    6 type  1   force =     0.00013837   -0.00066732    0.00001172
     atom    7 type  3   force =    -0.00554231    0.00139397   -0.00001484
     atom    8 type  3   force =     0.00554231   -0.00139397   -0.00001484
     atom    9 type  3   force =    -0.00554231   -0.00139397    0.00001484
     atom   10 type  3   force =     0.00554231    0.00139397    0.00001484
     atom   11 type  3   force =     0.00365858    0.00442128    0.00000472
     atom   12 type  3   force =    -0.00365858   -0.00442128    0.00000472
     atom   13 type  3   force =     0.00365858   -0.00442128   -0.00000472
     atom   14 type  3   force =    -0.00365858    0.00442128   -0.00000472
     atom   15 type  3   force =     0.00070413   -0.00326344   -0.00494508
     atom   16 type  3   force =    -0.00070413    0.00326344   -0.00494508
     atom   17 type  3   force =     0.00070413    0.00326344    0.00494508
     atom   18 type  3   force =    -0.00070413   -0.00326344    0.00494508
     atom   19 type  3   force =    -0.00066184    0.00324406    0.00493379
     atom   20 type  3   force =     0.00066184   -0.00324406    0.00493379
     atom   21 type  3   force =    -0.00066184   -0.00324406   -0.00493379
     atom   22 type  3   force =     0.00066184    0.00324406   -0.00493379

     Total force =     0.023406     Total SCF correction =     0.000004


     Computing stress (Cartesian axis) and pressure

          total   stress  (Ry/bohr**3)                   (kbar)     P=       12.78
   0.00008064   0.00000000   0.00000000           11.86        0.00        0.00
   0.00000000   0.00008231   0.00000000            0.00       12.11        0.00
   0.00000000   0.00000000   0.00009758            0.00        0.00       14.35

     Volume is kept fixed: isostatic pressure set to zero

     BFGS Geometry Optimization
     Energy error            =      0.0E+00 Ry
     Gradient error          =      5.5E-03 Ry/Bohr
     Cell gradient error     =      1.6E+00 kbar

     number of scf cycles    =   1
     number of bfgs steps    =   0

     enthalpy           new  =    -156.4736280744 Ry

     new trust radius        =       0.0059665453 bohr
ibrav =      8
 celldm(1) =     12.53256500
 celldm(2) =      1.02561370
 celldm(3) =      0.69268741
Input lattice vectors:
     0.99984496     0.00000000     0.00000000
     0.00000000     1.02545469     0.00000000
     0.00000000     0.00000000     0.69258002
New lattice vectors in INITIAL alat:
     0.99984496     0.00000000     0.00000000
     0.00000000     1.02545469     0.00000000
     0.00000000     0.00000000     0.69258002
New lattice vectors in NEW alat (for information only):
     1.00000000     0.00000000     0.00000000
     0.00000000     1.02561370     0.00000000
     0.00000000     0.00000000     0.69268741
Discrepancy in bohr =     0.000000    0.000000    0.000000
     new conv_thr            =            1.0E-10 Ry

     new unit-cell volume =   1398.43088 a.u.^3 (   207.22608 Ang^3 )
     density =      2.67660 g/cm^3

CELL_PARAMETERS (alat= 12.53450834)
   0.999844960   0.000000000   0.000000000
   0.000000000   1.025454692   0.000000000
   0.000000000   0.000000000   0.692580017

ATOMIC_POSITIONS (crystal)
Ba               0.5000000000        0.5000000000        0.5001008438
Ba               0.0000000000        0.0000000000        0.9998991562
B                0.6102459773        0.2391504690        0.0000643060
B                0.3897540227        0.7608495310        0.0000643060
B                0.1102459773        0.2608495310        0.4999356940
B                0.8897540227        0.7391504690        0.4999356940
H                0.4336550880        0.2922641666        0.0002292232
H                0.5663449120        0.7077358334        0.0002292232
H                0.9336550880        0.2077358334        0.4997707768
H                0.0663449120        0.7922641666        0.4997707768
H                0.7223521483        0.3838989431       -0.0000078275
H                0.2776478517        0.6161010569       -0.0000078275
H                0.2223521483        0.1161010569        0.5000078275
H                0.7776478517        0.8838989431        0.5000078275
H                0.6393061000        0.1418405303        0.7799286264
H                0.3606939000        0.8581594697        0.7799286264
H                0.1393061000        0.3581594697        0.7200713736
H                0.8606939000        0.6418405303        0.7200713736
H                0.3604800293        0.8582082718        0.2200933345
H                0.6395199707        0.1417917282        0.2200933345
H                0.8604800293        0.6417917282        0.2799066655
H                0.1395199707        0.3582082718        0.2799066655



     Writing config-only to output data dir ./pwscf.save/ :
     XML data file
     NEW-OLD atomic charge density approx. for the potential

     total cpu time spent up to now is      100.2 secs

     Self-consistent Calculation

     iteration #  1     ecut=   100.00 Ry     beta= 0.70
     Davidson diagonalization with overlap
     ethr =  1.00E-06,  avg # of iterations =  3.0

     total cpu time spent up to now is      107.9 secs

     total energy              =    -156.47403379 Ry
     estimated scf accuracy    <       0.00012455 Ry

     iteration #  2     ecut=   100.00 Ry     beta= 0.70
     Davidson diagonalization with overlap
     ethr =  2.59E-07,  avg # of iterations =  2.0

     total cpu time spent up to now is      114.3 secs

     total energy              =    -156.47406606 Ry
     estimated scf accuracy    <       0.00001972 Ry

     iteration #  3     ecut=   100.00 Ry     beta= 0.70
     Davidson diagonalization with overlap
     ethr =  4.11E-08,  avg # of iterations =  2.0

     total cpu time spent up to now is      120.7 secs

     total energy              =    -156.47406891 Ry
     estimated scf accuracy    <       0.00000019 Ry

     iteration #  4     ecut=   100.00 Ry     beta= 0.70
     Davidson diagonalization with overlap
     ethr =  4.06E-10,  avg # of iterations =  3.5

     total cpu time spent up to now is      128.7 secs

     total energy              =    -156.47406901 Ry
     estimated scf accuracy    <       0.00000015 Ry

     iteration #  5     ecut=   100.00 Ry     beta= 0.70
     Davidson diagonalization with overlap
     ethr =  3.08E-10,  avg # of iterations =  2.0

     total cpu time spent up to now is      135.1 secs

     total energy              =    -156.47406903 Ry
     estimated scf accuracy    <          2.3E-09 Ry

     iteration #  6     ecut=   100.00 Ry     beta= 0.70
     Davidson diagonalization with overlap
     ethr =  4.73E-12,  avg # of iterations =  6.0

     total cpu time spent up to now is      145.2 secs

     total energy              =    -156.47406903 Ry
     estimated scf accuracy    <          1.0E-09 Ry

     iteration #  7     ecut=   100.00 Ry     beta= 0.70
     Davidson diagonalization with overlap
     ethr =  2.14E-12,  avg # of iterations =  2.2

     total cpu time spent up to now is      151.6 secs

     End of self-consistent calculation

          k = 0.0000 0.0000 0.0000 ( 23621 PWs)   bands (ev):

   -23.5675 -23.5566  -9.1866  -9.0842  -8.8566  -8.8110  -8.7838  -8.7096
    -5.9143  -4.9200  -4.1474  -4.0083  -1.6117  -0.6740  -0.5653  -0.2352
     0.1614   0.1869   0.2503   0.3564   0.5314   0.9662   0.9764   1.0209

          k = 0.0000 0.0000 0.3610 ( 23590 PWs)   bands (ev):

   -23.5583 -23.5506  -9.0776  -9.0768  -9.0516  -9.0068  -8.8352  -8.8101
    -5.3591  -4.6224  -4.3494  -4.2652  -1.1998  -0.9343  -0.4797  -0.4252
    -0.2644  -0.1343   0.2507   0.5542   0.7430   0.7969   0.8799   1.0308

          k = 0.0000 0.0000-0.7219 ( 23652 PWs)   bands (ev):

   -23.5467 -23.5467  -9.3270  -9.3268  -8.9094  -8.9094  -8.8446  -8.8446
    -4.5963  -4.5958  -4.5404  -4.5399  -0.9633  -0.9628  -0.9530  -0.9514
     0.1434   0.1443   0.2577   0.2595   0.8472   0.8475   0.8620   0.8622

          k = 0.0000 0.2438 0.0000 ( 23557 PWs)   bands (ev):

   -23.5659 -23.5582  -9.1535  -9.0483  -8.9222  -8.8533  -8.7727  -8.7202
    -5.6940  -4.8180  -4.4642  -4.1535  -1.2202  -0.7630  -0.7485   0.0605
     0.0849   0.1020   0.4069   0.5409   0.6189   0.6297   0.8726   0.9468

          k = 0.0000 0.2438 0.3610 ( 23598 PWs)   bands (ev):

   -23.5571 -23.5517  -9.1313  -9.0876  -8.9902  -8.9734  -8.8470  -8.8365
    -5.2488  -4.7053  -4.3906  -4.3051  -1.0028  -0.9598  -0.7728  -0.1663
    -0.1210   0.0773   0.0930   0.6101   0.6779   0.7381   0.8415   0.9005

          k = 0.0000 0.2438-0.7219 ( 23610 PWs)   bands (ev):

   -23.5467 -23.5467  -9.3426  -9.3424  -8.8870  -8.8870  -8.8436  -8.8435
    -4.9306  -4.9305  -4.1917  -4.1916  -1.0998  -1.0991  -0.7562  -0.7553
     0.2301   0.2303   0.2922   0.2938   0.6602   0.6603   0.8554   0.8557

          k = 0.0000-0.4876 0.0000 ( 23608 PWs)   bands (ev):

   -23.5620 -23.5620  -9.0580  -9.0580  -8.9494  -8.9494  -8.7462  -8.7462
    -5.1504  -5.1504  -4.4720  -4.4720  -0.8930  -0.8930  -0.2559  -0.2559
    -0.0050  -0.0050   0.5311   0.5311   0.6712   0.6712   0.7935   0.7935

          k = 0.0000-0.4876 0.3610 ( 23596 PWs)   bands (ev):

   -23.5544 -23.5544  -9.1315  -9.1315  -8.9213  -8.9213  -8.8841  -8.8841
    -4.9755  -4.9755  -4.3749  -4.3749  -0.9461  -0.9461  -0.5244  -0.5244
     0.1398   0.1398   0.4328   0.4328   0.5897   0.5897   0.8140   0.8140

          k = 0.0000-0.4876-0.7219 ( 23612 PWs)   bands (ev):

   -23.5467 -23.5467  -9.3568  -9.3568  -8.8679  -8.8679  -8.8404  -8.8404
    -5.0776  -5.0776  -4.0303  -4.0303  -1.1973  -1.1973  -0.4853  -0.4853
     0.1439   0.1439   0.3651   0.3651   0.4552   0.4552   0.8937   0.8937

          k = 0.2500 0.0000 0.0000 ( 23618 PWs)   bands (ev):

   -23.5659 -23.5582  -9.1415  -9.0635  -8.9084  -8.8751  -8.7727  -8.7202
    -5.7031  -4.9401  -4.1978  -4.1817  -1.4094  -0.5129  -0.4812  -0.3666
     0.2099   0.2548   0.3149   0.3833   0.4860   0.5153   0.9259   0.9618

          k = 0.2500 0.0000 0.3610 ( 23624 PWs)   bands (ev):

   -23.5571 -23.5516  -9.1214  -9.1014  -9.0235  -8.9456  -8.8659  -8.8225
    -5.1981  -4.5968  -4.4070  -4.3886  -1.1719  -0.9190  -0.7759  -0.2141
    -0.2097   0.0911   0.3220   0.4622   0.6147   0.7438   0.9474   0.9793

          k = 0.2500 0.0000-0.7219 ( 23622 PWs)   bands (ev):

   -23.5467 -23.5467  -9.3484  -9.3482  -8.8926  -8.8926  -8.8408  -8.8408
    -4.7152  -4.7148  -4.3861  -4.3857  -1.4612  -1.4607  -0.4735  -0.4731
     0.1439   0.1444   0.5082   0.5095   0.6362   0.6362   0.8910   0.8914

          k = 0.2500 0.2438 0.0000 ( 23618 PWs)   bands (ev):

   -23.5647 -23.5593  -9.1749  -9.0355  -8.9718  -8.8188  -8.7647  -8.7276
    -5.5524  -4.8939  -4.4712  -4.2077  -1.1006  -0.7423  -0.5300  -0.0488
     0.0210   0.0756   0.3965   0.5505   0.5632   0.6521   0.7182   0.8751

          k = 0.2500 0.2438 0.3610 ( 23610 PWs)   bands (ev):

   -23.5563 -23.5524  -9.1249  -9.0778  -9.0685  -8.9209  -8.8803  -8.8139
    -5.1059  -4.6471  -4.4846  -4.3857  -1.1355  -0.8906  -0.7806  -0.1999
    -0.0419   0.1473   0.2520   0.4854   0.5882   0.7055   0.8658   0.9559

          k = 0.2500 0.2438-0.7219 ( 23636 PWs)   bands (ev):

   -23.5467 -23.5467  -9.3562  -9.3287  -8.9192  -8.8701  -8.8500  -8.8411
    -4.9467  -4.7361  -4.3551  -4.1379  -1.4370  -1.3458  -0.5526  -0.4236
     0.0889   0.0946   0.4747   0.5518   0.6403   0.6963   0.8373   0.8654

          k = 0.2500-0.4876 0.0000 ( 23590 PWs)   bands (ev):

   -23.5620 -23.5620  -9.1464  -9.1464  -8.8604  -8.8604  -8.7458  -8.7458
    -5.1661  -5.1661  -4.4424  -4.4424  -0.7984  -0.7984  -0.2653  -0.2653
    -0.0482  -0.0482   0.4549   0.4549   0.7146   0.7146   0.7285   0.7285

          k = 0.2500-0.4876 0.3610 ( 23602 PWs)   bands (ev):

   -23.5543 -23.5543  -9.1180  -9.1180  -8.9975  -8.9975  -8.8308  -8.8308
    -4.8779  -4.8779  -4.4494  -4.4494  -1.0435  -1.0435  -0.4335  -0.4335
     0.1050   0.1050   0.4482   0.4482   0.6034   0.6034   0.8362   0.8362

          k = 0.2500-0.4876-0.7219 ( 23628 PWs)   bands (ev):

   -23.5466 -23.5466  -9.3378  -9.3378  -8.8976  -8.8976  -8.8484  -8.8484
    -4.9532  -4.9532  -4.1214  -4.1214  -1.3157  -1.3157  -0.5502  -0.5502
     0.2139   0.2139   0.3464   0.3464   0.6961   0.6961   0.8521   0.8521

          k =-0.5001 0.0000 0.0000 ( 23624 PWs)   bands (ev):

   -23.5620 -23.5620  -9.0294  -9.0294  -8.9889  -8.9889  -8.7462  -8.7462
    -5.2375  -5.2375  -4.2857  -4.2857  -0.9635  -0.9635  -0.1292  -0.1292
     0.2550   0.2550   0.2695   0.2695   0.3609   0.3609   0.8042   0.8042

          k =-0.5001 0.0000 0.3610 ( 23600 PWs)   bands (ev):

   -23.5543 -23.5543  -9.1368  -9.1368  -8.9477  -8.9477  -8.8663  -8.8663
    -4.8217  -4.8217  -4.4712  -4.4712  -1.0985  -1.0985  -0.5010  -0.5010
     0.1104   0.1104   0.3115   0.3115   0.7065   0.7065   0.9348   0.9348

          k =-0.5001 0.0000-0.7219 ( 23668 PWs)   bands (ev):

   -23.5466 -23.5466  -9.3681  -9.3681  -8.8787  -8.8787  -8.8356  -8.8356
    -4.7705  -4.7705  -4.2917  -4.2917  -1.6852  -1.6852  -0.1470  -0.1470
     0.1439   0.1439   0.3136   0.3136   0.8369   0.8369   0.8408   0.8408

          k =-0.5001 0.2438 0.0000 ( 23626 PWs)   bands (ev):

   -23.5620 -23.5620  -9.1446  -9.1446  -8.8677  -8.8677  -8.7458  -8.7458
    -5.2118  -5.2118  -4.3471  -4.3471  -0.8493  -0.8493  -0.1359  -0.1359
     0.0221   0.0221   0.2253   0.2253   0.6190   0.6190   0.7844   0.7844

          k =-0.5001 0.2438 0.3610 ( 23612 PWs)   bands (ev):

   -23.5543 -23.5543  -9.1214  -9.1214  -9.0022  -9.0022  -8.8295  -8.8295
    -4.7787  -4.7787  -4.5194  -4.5194  -1.1046  -1.1046  -0.4672  -0.4672
     0.1446   0.1446   0.3584   0.3584   0.6993   0.6993   0.8620   0.8620

          k =-0.5001 0.2438-0.7219 ( 23628 PWs)   bands (ev):

   -23.5466 -23.5466  -9.3439  -9.3439  -8.9007  -8.9007  -8.8476  -8.8476
    -4.7803  -4.7803  -4.2714  -4.2714  -1.5730  -1.5730  -0.3727  -0.3727
     0.1882   0.1882   0.3953   0.3953   0.7613   0.7613   0.9106   0.9106

          k =-0.5001-0.4876 0.0000 ( 23600 PWs)   bands (ev):

   -23.5620 -23.5620  -9.1980  -9.1980  -8.8081  -8.8081  -8.7453  -8.7453
    -5.1830  -5.1830  -4.4103  -4.4103  -0.6875  -0.6875  -0.2929  -0.2929
    -0.0870  -0.0870   0.4166   0.4166   0.6254   0.6254   0.7536   0.7536

          k =-0.5001-0.4876 0.3610 ( 23592 PWs)   bands (ev):

   -23.5543 -23.5543  -9.0908  -9.0908  -9.0564  -9.0564  -8.8082  -8.8082
    -4.7100  -4.7100  -4.5930  -4.5930  -1.0939  -1.0939  -0.5035  -0.5035
     0.3034   0.3034   0.4465   0.4465   0.5962   0.5962   0.7708   0.7708

          k =-0.5001-0.4876-0.7219 ( 23624 PWs)   bands (ev):

   -23.5466 -23.5466  -9.3163  -9.3163  -8.9299  -8.9299  -8.8558  -8.8558
    -4.7903  -4.7903  -4.2505  -4.2505  -1.4029  -1.4029  -0.6855  -0.6855
     0.4278   0.4278   0.4753   0.4753   0.6214   0.6214   0.8733   0.8733

     highest occupied level (ev):     1.0308

!    total energy              =    -156.47406903 Ry
     estimated scf accuracy    <          6.0E-12 Ry

     The total energy is the sum of the following terms:
     one-electron contribution =     -20.17955169 Ry
     hartree contribution      =      24.93056084 Ry
     xc contribution           =     -49.22736607 Ry
     ewald contribution        =    -111.99771211 Ry

     convergence has been achieved in   7 iterations

     Forces acting on atoms (cartesian axes, Ry/au):

     atom    1 type  2   force =     0.00000000    0.00000000    0.00001206
     atom    2 type  2   force =     0.00000000    0.00000000   -0.00001206
     atom    3 type  1   force =    -0.00017594   -0.00073539   -0.00001173
     atom    4 type  1   force =     0.00017594    0.00073539   -0.00001173
     atom    5 type  1   force =    -0.00017594    0.00073539    0.00001173
     atom    6 type  1   force =     0.00017594   -0.00073539    0.00001173
     atom    7 type  3   force =    -0.00338833    0.00075215   -0.00001728
     atom    8 type  3   force =     0.00338833   -0.00075215   -0.00001728
     atom    9 type  3   force =    -0.00338833   -0.00075215    0.00001728
     atom   10 type  3   force =     0.00338833    0.00075215    0.00001728
     atom   11 type  3   force =     0.00223106    0.00250600    0.00000473
     atom   12 type  3   force =    -0.00223106   -0.00250600    0.00000473
     atom   13 type  3   force =     0.00223106   -0.00250600   -0.00000473
     atom   14 type  3   force =    -0.00223106    0.00250600   -0.00000473
     atom   15 type  3   force =     0.00032378   -0.00196706   -0.00285694
     atom   16 type  3   force =    -0.00032378    0.00196706   -0.00285694
     atom   17 type  3   force =     0.00032378    0.00196706    0.00285694
     atom   18 type  3   force =    -0.00032378   -0.00196706    0.00285694
     atom   19 type  3   force =    -0.00028080    0.00195005    0.00284898
     atom   20 type  3   force =     0.00028080   -0.00195005    0.00284898
     atom   21 type  3   force =    -0.00028080   -0.00195005   -0.00284898
     atom   22 type  3   force =     0.00028080    0.00195005   -0.00284898

     Total force =     0.013858     Total SCF correction =     0.000001


     Computing stress (Cartesian axis) and pressure

          total   stress  (Ry/bohr**3)                   (kbar)     P=        9.88
   0.00006269   0.00000000   0.00000000            9.22        0.00        0.00
   0.00000000   0.00006334   0.00000000            0.00        9.32        0.00
   0.00000000   0.00000000   0.00007548            0.00        0.00       11.10

     Volume is kept fixed: isostatic pressure set to zero
     Energy error            =      4.4E-04 Ry
     Gradient error          =      3.4E-03 Ry/Bohr
     Cell gradient error     =      1.2E+00 kbar

     number of scf cycles    =   2
     number of bfgs steps    =   1

     enthalpy           old  =    -156.4736280744 Ry
     enthalpy           new  =    -156.4740690334 Ry

     CASE: enthalpy          _new < enthalpy          _old

     new trust radius        =       0.0065641734 bohr
ibrav =      8
 celldm(1) =     12.52992327
 celldm(2) =      1.02564565
 celldm(3) =      0.69310404
Input lattice vectors:
     0.99963420     0.00000000     0.00000000
     0.00000000     1.02527047     0.00000000
     0.00000000     0.00000000     0.69285051
New lattice vectors in INITIAL alat:
     0.99963420     0.00000000     0.00000000
     0.00000000     1.02527047     0.00000000
     0.00000000     0.00000000     0.69285051
New lattice vectors in NEW alat (for information only):
     1.00000000     0.00000000     0.00000000
     0.00000000     1.02564565     0.00000000
     0.00000000     0.00000000     0.69310404
Discrepancy in bohr =     0.000000    0.000000    0.000000
     new conv_thr            =            4.4E-11 Ry

     new unit-cell volume =   1398.43088 a.u.^3 (   207.22608 Ang^3 )
     density =      2.67660 g/cm^3

CELL_PARAMETERS (alat= 12.53450834)
   0.999634204   0.000000000   0.000000000
   0.000000000   1.025270470   0.000000000
   0.000000000   0.000000000   0.692850506

ATOMIC_POSITIONS (crystal)
Ba               0.5000000000        0.5000000000        0.5001034565
Ba               0.0000000000        0.0000000000        0.9998965435
B                0.6102196447        0.2390430901        0.0000617677
B                0.3897803553        0.7609569099        0.0000617677
B                0.1102196447        0.2609569099        0.4999382323
B                0.8897803553        0.7390430901        0.4999382323
H                0.4331461266        0.2923744369        0.0002254858
H                0.5668538734        0.7076255631        0.0002254858
H                0.9331461266        0.2076255631        0.4997745142
H                0.0668538734        0.7923744369        0.4997745142
H                0.7226872814        0.3842661995       -0.0000068028
H                0.2773127186        0.6157338005       -0.0000068028
H                0.2226872814        0.1157338005        0.5000068028
H                0.7773127186        0.8842661995        0.5000068028
H                0.6393548470        0.1415523843        0.7793083224
H                0.3606451530        0.8584476157        0.7793083224
H                0.1393548470        0.3584476157        0.7206916776
H                0.8606451530        0.6415523843        0.7206916776
H                0.3604377208        0.8584939306        0.2207119132
H                0.6395622792        0.1415060694        0.2207119132
H                0.8604377208        0.6415060694        0.2792880868
H                0.1395622792        0.3584939306        0.2792880868



     Writing config-only to output data dir ./pwscf.save/ :
     XML data file
     NEW-OLD atomic charge density approx. for the potential

     total cpu time spent up to now is      159.5 secs

     Self-consistent Calculation

     iteration #  1     ecut=   100.00 Ry     beta= 0.70
     Davidson diagonalization with overlap
     ethr =  1.00E-06,  avg # of iterations =  3.0

     total cpu time spent up to now is      167.4 secs

     total energy              =    -156.47425751 Ry
     estimated scf accuracy    <       0.00015170 Ry

     iteration #  2     ecut=   100.00 Ry     beta= 0.70
     Davidson diagonalization with overlap
     ethr =  3.16E-07,  avg # of iterations =  2.0

     total cpu time spent up to now is      173.7 secs

     total energy              =    -156.47429672 Ry
     estimated scf accuracy    <       0.00002358 Ry

     iteration #  3     ecut=   100.00 Ry     beta= 0.70
     Davidson diagonalization with overlap
     ethr =  4.91E-08,  avg # of iterations =  2.0

     total cpu time spent up to now is      180.1 secs

     total energy              =    -156.47430012 Ry
     estimated scf accuracy    <       0.00000024 Ry

     iteration #  4     ecut=   100.00 Ry     beta= 0.70
     Davidson diagonalization with overlap
     ethr =  5.03E-10,  avg # of iterations =  3.4

     total cpu time spent up to now is      188.1 secs

     total energy              =    -156.47430024 Ry
     estimated scf accuracy    <       0.00000018 Ry

     iteration #  5     ecut=   100.00 Ry     beta= 0.70
     Davidson diagonalization with overlap
     ethr =  3.69E-10,  avg # of iterations =  2.0

     total cpu time spent up to now is      194.5 secs

     total energy              =    -156.47430028 Ry
     estimated scf accuracy    <          1.4E-09 Ry

     iteration #  6     ecut=   100.00 Ry     beta= 0.70
     Davidson diagonalization with overlap
     ethr =  2.92E-12,  avg # of iterations =  6.9

     total cpu time spent up to now is      206.4 secs

     total energy              =    -156.47430028 Ry
     estimated scf accuracy    <          9.5E-10 Ry

     iteration #  7     ecut=   100.00 Ry     beta= 0.70
     Davidson diagonalization with overlap
     ethr =  1.99E-12,  avg # of iterations =  2.0

     total cpu time spent up to now is      212.8 secs

     End of self-consistent calculation

          k = 0.0000 0.0000 0.0000 ( 23621 PWs)   bands (ev):

   -23.5616 -23.5507  -9.1801  -9.0784  -8.8507  -8.8055  -8.7786  -8.7042
    -5.9024  -4.9003  -4.1288  -3.9883  -1.6115  -0.6655  -0.5610  -0.2226
     0.1702   0.1927   0.2556   0.3649   0.5381   0.9805   0.9917   1.0373

          k = 0.0000 0.0000 0.3608 ( 23590 PWs)   bands (ev):

   -23.5524 -23.5447  -9.0712  -9.0707  -9.0450  -9.0013  -8.8295  -8.8047
    -5.3471  -4.6040  -4.3297  -4.2444  -1.2010  -0.9325  -0.4777  -0.4164
    -0.2580  -0.1276   0.2606   0.5663   0.7569   0.8112   0.8917   1.0455

          k = 0.0000 0.0000-0.7217 ( 23652 PWs)   bands (ev):

   -23.5409 -23.5409  -9.3197  -9.3195  -8.9041  -8.9041  -8.8391  -8.8391
    -4.5811  -4.5807  -4.5193  -4.5188  -0.9640  -0.9634  -0.9528  -0.9512
     0.1548   0.1557   0.2678   0.2696   0.8618   0.8619   0.8749   0.8751

          k = 0.0000 0.2438 0.0000 ( 23557 PWs)   bands (ev):

   -23.5600 -23.5523  -9.1471  -9.0424  -8.9164  -8.8477  -8.7674  -8.7148
    -5.6816  -4.7981  -4.4482  -4.1338  -1.2174  -0.7588  -0.7418   0.0680
     0.0911   0.1151   0.4163   0.5488   0.6325   0.6376   0.8868   0.9619

          k = 0.0000 0.2438 0.3608 ( 23598 PWs)   bands (ev):

   -23.5512 -23.5458  -9.1251  -9.0811  -8.9840  -8.9678  -8.8413  -8.8311
    -5.2359  -4.6873  -4.3720  -4.2850  -1.0025  -0.9584  -0.7696  -0.1611
    -0.1132   0.0887   0.1011   0.6223   0.6910   0.7518   0.8542   0.9143

          k = 0.0000 0.2438-0.7217 ( 23610 PWs)   bands (ev):

   -23.5409 -23.5409  -9.3354  -9.3352  -8.8818  -8.8818  -8.8380  -8.8380
    -4.9125  -4.9125  -4.1736  -4.1736  -1.0996  -1.0989  -0.7562  -0.7554
     0.2415   0.2418   0.3029   0.3045   0.6724   0.6725   0.8697   0.8699

          k = 0.0000-0.4877 0.0000 ( 23608 PWs)   bands (ev):

   -23.5561 -23.5561  -9.0516  -9.0516  -8.9440  -8.9440  -8.7409  -8.7409
    -5.1361  -5.1361  -4.4528  -4.4528  -0.8894  -0.8894  -0.2469  -0.2469
     0.0015   0.0015   0.5454   0.5454   0.6795   0.6795   0.8067   0.8067

          k = 0.0000-0.4877 0.3608 ( 23596 PWs)   bands (ev):

   -23.5485 -23.5485  -9.1253  -9.1253  -8.9151  -8.9151  -8.8788  -8.8788
    -4.9601  -4.9601  -4.3560  -4.3560  -0.9448  -0.9448  -0.5198  -0.5198
     0.1493   0.1493   0.4423   0.4423   0.6040   0.6040   0.8271   0.8271

          k = 0.0000-0.4877-0.7217 ( 23612 PWs)   bands (ev):

   -23.5408 -23.5408  -9.3496  -9.3496  -8.8627  -8.8627  -8.8348  -8.8348
    -5.0594  -5.0594  -4.0125  -4.0125  -1.1971  -1.1971  -0.4854  -0.4854
     0.1559   0.1559   0.3755   0.3755   0.4676   0.4676   0.9083   0.9083

          k = 0.2501 0.0000 0.0000 ( 23618 PWs)   bands (ev):

   -23.5600 -23.5523  -9.1351  -9.0578  -8.9025  -8.8696  -8.7674  -8.7148
    -5.6905  -4.9216  -4.1789  -4.1627  -1.4084  -0.5062  -0.4759  -0.3567
     0.2170   0.2618   0.3220   0.3946   0.4940   0.5274   0.9410   0.9782

          k = 0.2501 0.0000 0.3608 ( 23624 PWs)   bands (ev):

   -23.5512 -23.5458  -9.1152  -9.0950  -9.0174  -8.9397  -8.8603  -8.8170
    -5.1852  -4.5789  -4.3873  -4.3690  -1.1735  -0.9158  -0.7753  -0.2070
    -0.2002   0.0992   0.3334   0.4740   0.6263   0.7562   0.9623   0.9927

          k = 0.2501 0.0000-0.7217 ( 23622 PWs)   bands (ev):

   -23.5408 -23.5408  -9.3411  -9.3410  -8.8874  -8.8873  -8.8353  -8.8352
    -4.6957  -4.6953  -4.3691  -4.3687  -1.4631  -1.4626  -0.4715  -0.4712
     0.1554   0.1559   0.5193   0.5207   0.6483   0.6484   0.9050   0.9054

          k = 0.2501 0.2438 0.0000 ( 23618 PWs)   bands (ev):

   -23.5588 -23.5534  -9.1688  -9.0293  -8.9662  -8.8132  -8.7594  -8.7221
    -5.5390  -4.8755  -4.4541  -4.1892  -1.0970  -0.7373  -0.5224  -0.0400
     0.0274   0.0820   0.4090   0.5586   0.5763   0.6606   0.7326   0.8891

          k = 0.2501 0.2438 0.3608 ( 23610 PWs)   bands (ev):

   -23.5504 -23.5465  -9.1185  -9.0715  -9.0627  -8.9147  -8.8750  -8.8084
    -5.0922  -4.6288  -4.4667  -4.3660  -1.1360  -0.8898  -0.7767  -0.1922
    -0.0333   0.1561   0.2628   0.4965   0.6009   0.7184   0.8792   0.9693

          k = 0.2501 0.2438-0.7217 ( 23636 PWs)   bands (ev):

   -23.5408 -23.5408  -9.3489  -9.3214  -8.9140  -8.8649  -8.8445  -8.8355
    -4.9278  -4.7175  -4.3373  -4.1204  -1.4387  -1.3476  -0.5500  -0.4220
     0.1000   0.1057   0.4847   0.5628   0.6541   0.7092   0.8498   0.8808

          k = 0.2501-0.4877 0.0000 ( 23590 PWs)   bands (ev):

   -23.5561 -23.5561  -9.1404  -9.1404  -8.8547  -8.8547  -8.7404  -8.7404
    -5.1505  -5.1505  -4.4248  -4.4248  -0.7932  -0.7932  -0.2563  -0.2563
    -0.0422  -0.0422   0.4667   0.4667   0.7234   0.7234   0.7424   0.7424

          k = 0.2501-0.4877 0.3608 ( 23602 PWs)   bands (ev):

   -23.5485 -23.5485  -9.1118  -9.1118  -8.9914  -8.9914  -8.8252  -8.8252
    -4.8620  -4.8620  -4.4309  -4.4309  -1.0431  -1.0431  -0.4272  -0.4272
     0.1137   0.1137   0.4593   0.4593   0.6162   0.6162   0.8491   0.8491

          k = 0.2501-0.4877-0.7217 ( 23628 PWs)   bands (ev):

   -23.5408 -23.5408  -9.3305  -9.3305  -8.8924  -8.8924  -8.8428  -8.8428
    -4.9347  -4.9347  -4.1036  -4.1036  -1.3172  -1.3172  -0.5478  -0.5478
     0.2253   0.2253   0.3567   0.3567   0.7090   0.7090   0.8663   0.8663

          k =-0.5002 0.0000 0.0000 ( 23624 PWs)   bands (ev):

   -23.5561 -23.5561  -9.0230  -9.0230  -8.9836  -8.9836  -8.7409  -8.7409
    -5.2225  -5.2225  -4.2665  -4.2665  -0.9608  -0.9608  -0.1214  -0.1214
     0.2603   0.2603   0.2826   0.2826   0.3702   0.3702   0.8198   0.8198

          k =-0.5002 0.0000 0.3608 ( 23600 PWs)   bands (ev):

   -23.5485 -23.5485  -9.1306  -9.1306  -8.9418  -8.9418  -8.8608  -8.8608
    -4.8067  -4.8067  -4.4514  -4.4514  -1.0993  -1.0993  -0.4955  -0.4955
     0.1208   0.1208   0.3223   0.3223   0.7180   0.7180   0.9494   0.9494

          k =-0.5002 0.0000-0.7217 ( 23668 PWs)   bands (ev):

   -23.5408 -23.5408  -9.3609  -9.3609  -8.8735  -8.8735  -8.8301  -8.8301
    -4.7501  -4.7501  -4.2754  -4.2754  -1.6879  -1.6879  -0.1442  -0.1442
     0.1554   0.1554   0.3247   0.3247   0.8486   0.8486   0.8559   0.8559

          k =-0.5002 0.2438 0.0000 ( 23626 PWs)   bands (ev):

   -23.5561 -23.5561  -9.1386  -9.1386  -8.8620  -8.8620  -8.7404  -8.7404
    -5.1960  -5.1960  -4.3294  -4.3294  -0.8444  -0.8444  -0.1277  -0.1277
     0.0281   0.0281   0.2367   0.2367   0.6277   0.6277   0.7993   0.7993

          k =-0.5002 0.2438 0.3608 ( 23612 PWs)   bands (ev):

   -23.5484 -23.5484  -9.1153  -9.1153  -8.9961  -8.9961  -8.8240  -8.8240
    -4.7630  -4.7630  -4.5005  -4.5005  -1.1050  -1.1050  -0.4612  -0.4612
     0.1550   0.1550   0.3689   0.3689   0.7114   0.7114   0.8754   0.8754

          k =-0.5002 0.2438-0.7217 ( 23628 PWs)   bands (ev):

   -23.5408 -23.5408  -9.3367  -9.3367  -8.8955  -8.8955  -8.8420  -8.8420
    -4.7606  -4.7606  -4.2544  -4.2544  -1.5757  -1.5757  -0.3694  -0.3694
     0.1989   0.1989   0.4066   0.4066   0.7747   0.7747   0.9241   0.9241

          k =-0.5002-0.4877 0.0000 ( 23600 PWs)   bands (ev):

   -23.5560 -23.5560  -9.1921  -9.1921  -8.8025  -8.8025  -8.7399  -8.7399
    -5.1662  -5.1662  -4.3941  -4.3941  -0.6791  -0.6791  -0.2866  -0.2866
    -0.0812  -0.0812   0.4292   0.4292   0.6377   0.6377   0.7627   0.7627

          k =-0.5002-0.4877 0.3608 ( 23592 PWs)   bands (ev):

   -23.5484 -23.5484  -9.0851  -9.0851  -9.0499  -9.0499  -8.8027  -8.8027
    -4.6933  -4.6933  -4.5753  -4.5753  -1.0939  -1.0939  -0.4971  -0.4971
     0.3129   0.3129   0.4595   0.4595   0.6088   0.6088   0.7817   0.7817

          k =-0.5002-0.4877-0.7217 ( 23624 PWs)   bands (ev):

   -23.5408 -23.5408  -9.3089  -9.3089  -8.9247  -8.9247  -8.8504  -8.8504
    -4.7712  -4.7712  -4.2328  -4.2328  -1.4054  -1.4054  -0.6826  -0.6826
     0.4388   0.4388   0.4885   0.4885   0.6343   0.6343   0.8857   0.8857

     highest occupied level (ev):     1.0455

!    total energy              =    -156.47430028 Ry
     estimated scf accuracy    <          1.3E-11 Ry

     The total energy is the sum of the following terms:
     one-electron contribution =     -19.97824281 Ry
     hartree contribution      =      24.83063699 Ry
     xc contribution           =     -49.20299371 Ry
     ewald contribution        =    -112.12370075 Ry

     convergence has been achieved in   7 iterations

     Forces acting on atoms (cartesian axes, Ry/au):

     atom    1 type  2   force =     0.00000000    0.00000000    0.00000772
     atom    2 type  2   force =     0.00000000    0.00000000   -0.00000772
     atom    3 type  1   force =    -0.00021266   -0.00047530   -0.00000936
     atom    4 type  1   force =     0.00021266    0.00047530   -0.00000936
     atom    5 type  1   force =    -0.00021266    0.00047530    0.00000936
     atom    6 type  1   force =     0.00021266   -0.00047530    0.00000936
     atom    7 type  3   force =    -0.00100014    0.00003509   -0.00002027
     atom    8 type  3   force =     0.00100014   -0.00003509   -0.00002027
     atom    9 type  3   force =    -0.00100014   -0.00003509    0.00002027
     atom   10 type  3   force =     0.00100014    0.00003509    0.00002027
     atom   11 type  3   force =     0.00058280    0.00030204    0.00000435
     atom   12 type  3   force =    -0.00058280   -0.00030204    0.00000435
     atom   13 type  3   force =     0.00058280   -0.00030204   -0.00000435
     atom   14 type  3   force =    -0.00058280    0.00030204   -0.00000435
     atom   15 type  3   force =    -0.00007368   -0.00064178   -0.00063856
     atom   16 type  3   force =     0.00007368    0.00064178   -0.00063856
     atom   17 type  3   force =    -0.00007368    0.00064178    0.00063856
     atom   18 type  3   force =     0.00007368   -0.00064178    0.00063856
     atom   19 type  3   force =     0.00011611    0.00062781    0.00063346
     atom   20 type  3   force =    -0.00011611   -0.00062781    0.00063346
     atom   21 type  3   force =     0.00011611   -0.00062781   -0.00063346
     atom   22 type  3   force =    -0.00011611    0.00062781   -0.00063346

     Total force =     0.003654     Total SCF correction =     0.000002


     Computing stress (Cartesian axis) and pressure

          total   stress  (Ry/bohr**3)                   (kbar)     P=        6.68
   0.00004248   0.00000000   0.00000000            6.25        0.00        0.00
   0.00000000   0.00004250   0.00000000            0.00        6.25        0.00
   0.00000000   0.00000000   0.00005132            0.00        0.00        7.55

     Volume is kept fixed: isostatic pressure set to zero
     Energy error            =      2.3E-04 Ry
     Gradient error          =      1.0E-03 Ry/Bohr
     Cell gradient error     =      8.7E-01 kbar

     number of scf cycles    =   3
     number of bfgs steps    =   2

     enthalpy           old  =    -156.4740690334 Ry
     enthalpy           new  =    -156.4743002801 Ry

     CASE: enthalpy          _new < enthalpy          _old

     new trust radius        =       0.0024644188 bohr
ibrav =      8
 celldm(1) =     12.52822612
 celldm(2) =      1.02565206
 celldm(3) =      0.69338142
Input lattice vectors:
     0.99949881     0.00000000     0.00000000
     0.00000000     1.02513801     0.00000000
     0.00000000     0.00000000     0.69303390
New lattice vectors in INITIAL alat:
     0.99949881     0.00000000     0.00000000
     0.00000000     1.02513801     0.00000000
     0.00000000     0.00000000     0.69303390
New lattice vectors in NEW alat (for information only):
     1.00000000     0.00000000     0.00000000
     0.00000000     1.02565206     0.00000000
     0.00000000     0.00000000     0.69338142
Discrepancy in bohr =     0.000000    0.000000    0.000000
     new conv_thr            =            2.3E-11 Ry

     new unit-cell volume =   1398.43088 a.u.^3 (   207.22608 Ang^3 )
     density =      2.67660 g/cm^3

CELL_PARAMETERS (alat= 12.53450834)
   0.999498806   0.000000000   0.000000000
   0.000000000   1.025138008   0.000000000
   0.000000000   0.000000000   0.693033902

ATOMIC_POSITIONS (crystal)
Ba               0.5000000000        0.5000000000        0.5001051001
Ba               0.0000000000        0.0000000000        0.9998948999
B                0.6101923888        0.2389751939        0.0000598858
B                0.3898076112        0.7610248061        0.0000598858
B                0.1101923888        0.2610248061        0.4999401142
B                0.8898076112        0.7389751939        0.4999401142
H                0.4329508622        0.2923972832        0.0002217102
H                0.5670491378        0.7076027168        0.0002217102
H                0.9329508622        0.2076027168        0.4997782898
H                0.0670491378        0.7923972832        0.4997782898
H                0.7228077354        0.3843615016       -0.0000059537
H                0.2771922646        0.6156384984       -0.0000059537
H                0.2228077354        0.1156384984        0.5000059537
H                0.7771922646        0.8843615016        0.5000059537
H                0.6393554962        0.1414354081        0.7791017821
H                0.3606445038        0.8585645919        0.7791017821
H                0.1393554962        0.3585645919        0.7208982179
H                0.8606445038        0.6414354081        0.7208982179
H                0.3604427157        0.8586090213        0.2209173667
H                0.6395572843        0.1413909787        0.2209173667
H                0.8604427157        0.6413909787        0.2790826333
H                0.1395572843        0.3586090213        0.2790826333



     Writing config-only to output data dir ./pwscf.save/ :
     XML data file
     NEW-OLD atomic charge density approx. for the potential

     total cpu time spent up to now is      220.7 secs

     Self-consistent Calculation

     iteration #  1     ecut=   100.00 Ry     beta= 0.70
     Davidson diagonalization with overlap
     ethr =  1.00E-06,  avg # of iterations =  2.0

     Threshold (ethr) on eigenvalues was too large:
     Diagonalizing with lowered threshold

     Davidson diagonalization with overlap
     ethr =  3.15E-08,  avg # of iterations =  2.0

     total cpu time spent up to now is      232.7 secs

     total energy              =    -156.47431449 Ry
     estimated scf accuracy    <       0.00002012 Ry

     iteration #  2     ecut=   100.00 Ry     beta= 0.70
     Davidson diagonalization with overlap
     ethr =  4.19E-08,  avg # of iterations =  2.0

     total cpu time spent up to now is      239.1 secs

     total energy              =    -156.47432019 Ry
     estimated scf accuracy    <       0.00000394 Ry

     iteration #  3     ecut=   100.00 Ry     beta= 0.70
     Davidson diagonalization with overlap
     ethr =  8.20E-09,  avg # of iterations =  2.0

     total cpu time spent up to now is      245.5 secs

     total energy              =    -156.47432071 Ry
     estimated scf accuracy    <       0.00000006 Ry

     iteration #  4     ecut=   100.00 Ry     beta= 0.70
     Davidson diagonalization with overlap
     ethr =  1.25E-10,  avg # of iterations =  3.0

     total cpu time spent up to now is      253.4 secs

     total energy              =    -156.47432074 Ry
     estimated scf accuracy    <       0.00000003 Ry

     iteration #  5     ecut=   100.00 Ry     beta= 0.70
     Davidson diagonalization with overlap
     ethr =  7.04E-11,  avg # of iterations =  2.0

     total cpu time spent up to now is      259.7 secs

     total energy              =    -156.47432075 Ry
     estimated scf accuracy    <          4.3E-10 Ry

     iteration #  6     ecut=   100.00 Ry     beta= 0.70
     Davidson diagonalization with overlap
     ethr =  8.99E-13,  avg # of iterations =  6.0

     total cpu time spent up to now is      270.3 secs

     total energy              =    -156.47432075 Ry
     estimated scf accuracy    <          3.3E-10 Ry

     iteration #  7     ecut=   100.00 Ry     beta= 0.70
     Davidson diagonalization with overlap
     ethr =  6.92E-13,  avg # of iterations =  2.0

     total cpu time spent up to now is      276.7 secs

     End of self-consistent calculation

          k = 0.0000 0.0000 0.0000 ( 23621 PWs)   bands (ev):

   -23.5598 -23.5489  -9.1779  -9.0765  -8.8488  -8.8038  -8.7770  -8.7025
    -5.8982  -4.8934  -4.1223  -3.9813  -1.6107  -0.6624  -0.5595  -0.2175
     0.1728   0.1956   0.2564   0.3675   0.5396   0.9858   0.9971   1.0442

          k = 0.0000 0.0000 0.3607 ( 23590 PWs)   bands (ev):

   -23.5506 -23.5429  -9.0689  -9.0688  -9.0426  -8.9996  -8.8278  -8.8030
    -5.3432  -4.5979  -4.3227  -4.2370  -1.2012  -0.9317  -0.4766  -0.4132
    -0.2560  -0.1257   0.2642   0.5705   0.7618   0.8167   0.8960   1.0515

          k = 0.0000 0.0000-0.7215 ( 23652 PWs)   bands (ev):

   -23.5392 -23.5391  -9.3169  -9.3166  -8.9026  -8.9026  -8.8374  -8.8373
    -4.5764  -4.5760  -4.5116  -4.5110  -0.9644  -0.9638  -0.9523  -0.9508
     0.1589   0.1597   0.2713   0.2731   0.8678   0.8678   0.8796   0.8799

          k = 0.0000 0.2439 0.0000 ( 23557 PWs)   bands (ev):

   -23.5582 -23.5505  -9.1450  -9.0405  -8.9145  -8.8460  -8.7659  -8.7131
    -5.6772  -4.7910  -4.4428  -4.1268  -1.2157  -0.7571  -0.7393   0.0699
     0.0924   0.1204   0.4204   0.5510   0.6382   0.6397   0.8921   0.9673

          k = 0.0000 0.2439 0.3607 ( 23598 PWs)   bands (ev):

   -23.5495 -23.5440  -9.1230  -9.0789  -8.9819  -8.9660  -8.8395  -8.8294
    -5.2316  -4.6813  -4.3654  -4.2778  -1.0021  -0.9577  -0.7682  -0.1596
    -0.1105   0.0930   0.1038   0.6267   0.6958   0.7574   0.8585   0.9195

          k = 0.0000 0.2439-0.7215 ( 23610 PWs)   bands (ev):

   -23.5391 -23.5391  -9.3325  -9.3324  -8.8802  -8.8802  -8.8363  -8.8363
    -4.9064  -4.9063  -4.1675  -4.1675  -1.0991  -1.0985  -0.7564  -0.7555
     0.2456   0.2459   0.3068   0.3084   0.6769   0.6769   0.8754   0.8756

          k = 0.0000-0.4877 0.0000 ( 23608 PWs)   bands (ev):

   -23.5544 -23.5544  -9.0495  -9.0495  -8.9423  -8.9423  -8.7393  -8.7393
    -5.1310  -5.1310  -4.4463  -4.4463  -0.8877  -0.8877  -0.2430  -0.2430
     0.0029   0.0029   0.5512   0.5512   0.6819   0.6819   0.8116   0.8116

          k = 0.0000-0.4877 0.3607 ( 23596 PWs)   bands (ev):

   -23.5467 -23.5467  -9.1231  -9.1231  -8.9130  -8.9130  -8.8772  -8.8772
    -4.9550  -4.9550  -4.3493  -4.3493  -0.9442  -0.9442  -0.5180  -0.5180
     0.1526   0.1526   0.4455   0.4455   0.6099   0.6099   0.8317   0.8317

          k = 0.0000-0.4877-0.7215 ( 23612 PWs)   bands (ev):

   -23.5391 -23.5391  -9.3469  -9.3469  -8.8612  -8.8612  -8.8330  -8.8330
    -5.0532  -5.0532  -4.0066  -4.0066  -1.1967  -1.1967  -0.4856  -0.4856
     0.1606   0.1606   0.3791   0.3791   0.4722   0.4722   0.9139   0.9139

          k = 0.2501 0.0000 0.0000 ( 23618 PWs)   bands (ev):

   -23.5582 -23.5505  -9.1329  -9.0559  -8.9005  -8.8679  -8.7659  -8.7132
    -5.6860  -4.9150  -4.1724  -4.1560  -1.4074  -0.5032  -0.4741  -0.3530
     0.2187   0.2636   0.3239   0.3994   0.4960   0.5316   0.9467   0.9850

          k = 0.2501 0.0000 0.3607 ( 23624 PWs)   bands (ev):

   -23.5495 -23.5440  -9.1130  -9.0928  -9.0154  -8.9378  -8.8585  -8.8153
    -5.1810  -4.5728  -4.3802  -4.3620  -1.1740  -0.9144  -0.7751  -0.2045
    -0.1967   0.1019   0.3377   0.4783   0.6302   0.7606   0.9684   0.9977

          k = 0.2501 0.0000-0.7215 ( 23622 PWs)   bands (ev):

   -23.5391 -23.5391  -9.3383  -9.3382  -8.8858  -8.8858  -8.8335  -8.8335
    -4.6888  -4.6884  -4.3635  -4.3631  -1.4638  -1.4633  -0.4708  -0.4705
     0.1595   0.1599   0.5233   0.5248   0.6531   0.6532   0.9104   0.9108

          k = 0.2501 0.2439 0.0000 ( 23618 PWs)   bands (ev):

   -23.5571 -23.5516  -9.1667  -9.0273  -8.9644  -8.8114  -8.7578  -8.7205
    -5.5342  -4.8688  -4.4482  -4.1828  -1.0950  -0.7353  -0.5196  -0.0365
     0.0288   0.0834   0.4140   0.5609   0.5817   0.6630   0.7380   0.8946

          k = 0.2501 0.2439 0.3607 ( 23610 PWs)   bands (ev):

   -23.5487 -23.5448  -9.1164  -9.0692  -9.0609  -8.9126  -8.8733  -8.8067
    -5.0876  -4.6226  -4.4605  -4.3591  -1.1362  -0.8895  -0.7749  -0.1895
    -0.0302   0.1592   0.2666   0.5003   0.6058   0.7233   0.8840   0.9744

          k = 0.2501 0.2439-0.7215 ( 23636 PWs)   bands (ev):

   -23.5391 -23.5391  -9.3461  -9.3186  -8.9125  -8.8633  -8.8429  -8.8338
    -4.9212  -4.7110  -4.3313  -4.1146  -1.4392  -1.3483  -0.5489  -0.4214
     0.1039   0.1099   0.4882   0.5667   0.6598   0.7140   0.8541   0.8870

          k = 0.2501-0.4877 0.0000 ( 23590 PWs)   bands (ev):

   -23.5543 -23.5543  -9.1384  -9.1384  -8.8529  -8.8529  -8.7388  -8.7388
    -5.1448  -5.1448  -4.4188  -4.4188  -0.7909  -0.7909  -0.2525  -0.2525
    -0.0409  -0.0409   0.4714   0.4714   0.7259   0.7259   0.7477   0.7477

          k = 0.2501-0.4877 0.3607 ( 23602 PWs)   bands (ev):

   -23.5467 -23.5467  -9.1097  -9.1097  -8.9894  -8.9894  -8.8235  -8.8235
    -4.8566  -4.8566  -4.4245  -4.4245  -1.0428  -1.0428  -0.4247  -0.4247
     0.1167   0.1167   0.4633   0.4633   0.6213   0.6213   0.8537   0.8537

          k = 0.2501-0.4877-0.7215 ( 23628 PWs)   bands (ev):

   -23.5391 -23.5391  -9.3277  -9.3277  -8.8909  -8.8909  -8.8411  -8.8411
    -4.9283  -4.9283  -4.0976  -4.0976  -1.3175  -1.3175  -0.5470  -0.5470
     0.2296   0.2296   0.3604   0.3604   0.7140   0.7140   0.8716   0.8716

          k =-0.5003 0.0000 0.0000 ( 23624 PWs)   bands (ev):

   -23.5543 -23.5543  -9.0208  -9.0208  -8.9819  -8.9819  -8.7393  -8.7393
    -5.2172  -5.2172  -4.2599  -4.2599  -0.9592  -0.9592  -0.1187  -0.1187
     0.2612   0.2612   0.2875   0.2875   0.3729   0.3729   0.8262   0.8262

          k =-0.5003 0.0000 0.3607 ( 23600 PWs)   bands (ev):

   -23.5467 -23.5467  -9.1284  -9.1284  -8.9398  -8.9398  -8.8590  -8.8590
    -4.8015  -4.8015  -4.4445  -4.4445  -1.0996  -1.0996  -0.4932  -0.4932
     0.1245   0.1245   0.3262   0.3262   0.7218   0.7218   0.9551   0.9551

          k =-0.5003 0.0000-0.7215 ( 23668 PWs)   bands (ev):

   -23.5391 -23.5391  -9.3581  -9.3581  -8.8719  -8.8719  -8.8283  -8.8283
    -4.7427  -4.7427  -4.2701  -4.2701  -1.6889  -1.6889  -0.1432  -0.1432
     0.1595   0.1595   0.3290   0.3290   0.8527   0.8527   0.8619   0.8619

          k =-0.5003 0.2439 0.0000 ( 23626 PWs)   bands (ev):

   -23.5543 -23.5543  -9.1366  -9.1366  -8.8602  -8.8602  -8.7388  -8.7388
    -5.1903  -5.1903  -4.3233  -4.3233  -0.8421  -0.8421  -0.1245  -0.1245
     0.0293   0.0293   0.2410   0.2410   0.6302   0.6302   0.8053   0.8053

          k =-0.5003 0.2439 0.3607 ( 23612 PWs)   bands (ev):

   -23.5467 -23.5467  -9.1132  -9.1132  -8.9941  -8.9941  -8.8222  -8.8222
    -4.7577  -4.7577  -4.4939  -4.4939  -1.1052  -1.1052  -0.4588  -0.4588
     0.1588   0.1588   0.3727   0.3727   0.7156   0.7156   0.8806   0.8806

          k =-0.5003 0.2439-0.7215 ( 23628 PWs)   bands (ev):

   -23.5391 -23.5391  -9.3339  -9.3339  -8.8940  -8.8940  -8.8403  -8.8403
    -4.7535  -4.7535  -4.2488  -4.2488  -1.5766  -1.5766  -0.3682  -0.3682
     0.2029   0.2029   0.4107   0.4107   0.7800   0.7800   0.9290   0.9290

          k =-0.5003-0.4877 0.0000 ( 23600 PWs)   bands (ev):

   -23.5543 -23.5543  -9.1901  -9.1901  -8.8007  -8.8007  -8.7383  -8.7383
    -5.1601  -5.1601  -4.3887  -4.3887  -0.6754  -0.6754  -0.2841  -0.2841
    -0.0801  -0.0801   0.4342   0.4342   0.6424   0.6424   0.7654   0.7654

          k =-0.5003-0.4877 0.3607 ( 23592 PWs)   bands (ev):

   -23.5467 -23.5467  -9.0834  -9.0834  -9.0475  -9.0475  -8.8010  -8.8010
    -4.6875  -4.6875  -4.5692  -4.5692  -1.0939  -1.0939  -0.4948  -0.4948
     0.3164   0.3164   0.4643   0.4643   0.6136   0.6136   0.7854   0.7854

          k =-0.5003-0.4877-0.7215 ( 23624 PWs)   bands (ev):

   -23.5390 -23.5390  -9.3061  -9.3061  -8.9232  -8.9232  -8.8487  -8.8487
    -4.7644  -4.7644  -4.2270  -4.2270  -1.4062  -1.4062  -0.6816  -0.6816
     0.4426   0.4426   0.4936   0.4936   0.6395   0.6395   0.8900   0.8900

     highest occupied level (ev):     1.0515

!    total energy              =    -156.47432075 Ry
     estimated scf accuracy    <          6.7E-12 Ry

     The total energy is the sum of the following terms:
     one-electron contribution =     -19.90222894 Ry
     hartree contribution      =      24.79289815 Ry
     xc contribution           =     -49.19446470 Ry
     ewald contribution        =    -112.17052526 Ry

     convergence has been achieved in   7 iterations

     Forces acting on atoms (cartesian axes, Ry/au):

     atom    1 type  2   force =     0.00000000    0.00000000    0.00000441
     atom    2 type  2   force =     0.00000000    0.00000000   -0.00000441
     atom    3 type  1   force =    -0.00020307   -0.00034154   -0.00000793
     atom    4 type  1   force =     0.00020307    0.00034154   -0.00000793
     atom    5 type  1   force =    -0.00020307    0.00034154    0.00000793
     atom    6 type  1   force =     0.00020307   -0.00034154    0.00000793
     atom    7 type  3   force =    -0.00021003   -0.00019326   -0.00002150
     atom    8 type  3   force =     0.00021003    0.00019326   -0.00002150
     atom    9 type  3   force =    -0.00021003    0.00019326    0.00002150
     atom   10 type  3   force =     0.00021003   -0.00019326    0.00002150
     atom   11 type  3   force =     0.00001418   -0.00043722    0.00000386
     atom   12 type  3   force =    -0.00001418    0.00043722    0.00000386
     atom   13 type  3   force =     0.00001418    0.00043722   -0.00000386
     atom   14 type  3   force =    -0.00001418   -0.00043722   -0.00000386
     atom   15 type  3   force =    -0.00020848   -0.00021323    0.00013947
     atom   16 type  3   force =     0.00020848    0.00021323    0.00013947
     atom   17 type  3   force =    -0.00020848    0.00021323   -0.00013947
     atom   18 type  3   force =     0.00020848   -0.00021323   -0.00013947
     atom   19 type  3   force =     0.00024911    0.00020174   -0.00014274
     atom   20 type  3   force =    -0.00024911   -0.00020174   -0.00014274
     atom   21 type  3   force =     0.00024911   -0.00020174    0.00014274
     atom   22 type  3   force =    -0.00024911    0.00020174    0.00014274

     Total force =     0.001628     Total SCF correction =     0.000001


     Computing stress (Cartesian axis) and pressure

          total   stress  (Ry/bohr**3)                   (kbar)     P=        5.57
   0.00003571   0.00000000   0.00000000            5.25        0.00        0.00
   0.00000000   0.00003559   0.00000000            0.00        5.23        0.00
   0.00000000   0.00000000   0.00004223            0.00        0.00        6.21

     Volume is kept fixed: isostatic pressure set to zero
     Energy error            =      2.0E-05 Ry
     Gradient error          =      4.4E-04 Ry/Bohr
     Cell gradient error     =      6.4E-01 kbar

     number of scf cycles    =   4
     number of bfgs steps    =   3

     enthalpy           old  =    -156.4743002801 Ry
     enthalpy           new  =    -156.4743207486 Ry

     CASE: enthalpy          _new < enthalpy          _old

     new trust radius        =       0.0011813992 bohr
ibrav =      8
 celldm(1) =     12.52725101
 celldm(2) =      1.02564962
 celldm(3) =      0.69354500
Input lattice vectors:
     0.99942101     0.00000000     0.00000000
     0.00000000     1.02505578     0.00000000
     0.00000000     0.00000000     0.69314345
New lattice vectors in INITIAL alat:
     0.99942101     0.00000000     0.00000000
     0.00000000     1.02505578     0.00000000
     0.00000000     0.00000000     0.69314345
New lattice vectors in NEW alat (for information only):
     1.00000000     0.00000000     0.00000000
     0.00000000     1.02564962     0.00000000
     0.00000000     0.00000000     0.69354500
Discrepancy in bohr =     0.000000    0.000000    0.000000
     new conv_thr            =            2.0E-12 Ry

     new unit-cell volume =   1398.43088 a.u.^3 (   207.22608 Ang^3 )
     density =      2.67660 g/cm^3

CELL_PARAMETERS (alat= 12.53450834)
   0.999421012   0.000000000   0.000000000
   0.000000000   1.025055776   0.000000000
   0.000000000   0.000000000   0.693143448

ATOMIC_POSITIONS (crystal)
Ba               0.5000000000        0.5000000000        0.5001058895
Ba               0.0000000000        0.0000000000        0.9998941105
B                0.6101707808        0.2389364774        0.0000586139
B                0.3898292192        0.7610635226        0.0000586139
B                0.1101707808        0.2610635226        0.4999413861
B                0.8898292192        0.7389364774        0.4999413861
H                0.4329032367        0.2923844450        0.0002184482
H                0.5670967633        0.7076155550        0.0002184482
H                0.9329032367        0.2076155550        0.4997815518
H                0.0670967633        0.7923844450        0.4997815518
H                0.7228270106        0.3843388956       -0.0000053441
H                0.2771729894        0.6156611044       -0.0000053441
H                0.2228270106        0.1156611044        0.5000053441
H                0.7771729894        0.8843388956        0.5000053441
H                0.6393375533        0.1413996753        0.7790882368
H                0.3606624467        0.8586003247        0.7790882368
H                0.1393375533        0.3586003247        0.7209117632
H                0.8606624467        0.6413996753        0.7209117632
H                0.3604650198        0.8586435050        0.2209303424
H                0.6395349802        0.1413564950        0.2209303424
H                0.8604650198        0.6413564950        0.2790696576
H                0.1395349802        0.3586435050        0.2790696576



     Writing config-only to output data dir ./pwscf.save/ :
     XML data file
     NEW-OLD atomic charge density approx. for the potential

     total cpu time spent up to now is      284.6 secs

     Self-consistent Calculation

     iteration #  1     ecut=   100.00 Ry     beta= 0.70
     Davidson diagonalization with overlap
     ethr =  1.00E-06,  avg # of iterations =  1.1

     Threshold (ethr) on eigenvalues was too large:
     Diagonalizing with lowered threshold

     Davidson diagonalization with overlap
     ethr =  4.59E-10,  avg # of iterations =  4.3

     total cpu time spent up to now is      298.9 secs

     total energy              =    -156.47432483 Ry
     estimated scf accuracy    <       0.00000063 Ry

     iteration #  2     ecut=   100.00 Ry     beta= 0.70
     Davidson diagonalization with overlap
     ethr =  1.31E-09,  avg # of iterations =  2.0

     total cpu time spent up to now is      305.3 secs

     total energy              =    -156.47432497 Ry
     estimated scf accuracy    <       0.00000007 Ry

     iteration #  3     ecut=   100.00 Ry     beta= 0.70
     Davidson diagonalization with overlap
     ethr =  1.42E-10,  avg # of iterations =  2.0

     total cpu time spent up to now is      311.7 secs

     total energy              =    -156.47432498 Ry
     estimated scf accuracy    <          1.8E-09 Ry

     iteration #  4     ecut=   100.00 Ry     beta= 0.70
     Davidson diagonalization with overlap
     ethr =  3.65E-12,  avg # of iterations =  4.1

     total cpu time spent up to now is      319.2 secs

     total energy              =    -156.47432498 Ry
     estimated scf accuracy    <          2.9E-10 Ry

     iteration #  5     ecut=   100.00 Ry     beta= 0.70
     Davidson diagonalization with overlap
     ethr =  6.14E-13,  avg # of iterations =  3.9

     total cpu time spent up to now is      326.5 secs

     total energy              =    -156.47432498 Ry
     estimated scf accuracy    <          5.3E-12 Ry

     iteration #  6     ecut=   100.00 Ry     beta= 0.70
     Davidson diagonalization with overlap
     ethr =  1.00E-13,  avg # of iterations =  3.8

     total cpu time spent up to now is      333.1 secs

     End of self-consistent calculation

          k = 0.0000 0.0000 0.0000 ( 23621 PWs)   bands (ev):

   -23.5599 -23.5490  -9.1777  -9.0764  -8.8487  -8.8037  -8.7771  -8.7025
    -5.8976  -4.8925  -4.1214  -3.9802  -1.6100  -0.6619  -0.5591  -0.2162
     0.1727   0.1968   0.2556   0.3675   0.5389   0.9869   0.9979   1.0461

          k = 0.0000 0.0000 0.3607 ( 23590 PWs)   bands (ev):

   -23.5507 -23.5430  -9.0687  -9.0685  -9.0422  -8.9995  -8.8277  -8.8030
    -5.3430  -4.5975  -4.3215  -4.2357  -1.2009  -0.9313  -0.4761  -0.4127
    -0.2560  -0.1258   0.2648   0.5711   0.7624   0.8180   0.8966   1.0530

          k = 0.0000 0.0000-0.7214 ( 23652 PWs)   bands (ev):

   -23.5392 -23.5392  -9.3162  -9.3159  -8.9027  -8.9027  -8.8374  -8.8373
    -4.5764  -4.5759  -4.5102  -4.5096  -0.9646  -0.9640  -0.9518  -0.9503
     0.1594   0.1602   0.2718   0.2736   0.8694   0.8694   0.8804   0.8808

          k = 0.0000 0.2439 0.0000 ( 23557 PWs)   bands (ev):

   -23.5583 -23.5506  -9.1448  -9.0403  -8.9144  -8.8460  -8.7659  -8.7132
    -5.6766  -4.7900  -4.4421  -4.1259  -1.2147  -0.7566  -0.7389   0.0696
     0.0918   0.1217   0.4217   0.5509   0.6393   0.6399   0.8931   0.9682

          k = 0.0000 0.2439 0.3607 ( 23598 PWs)   bands (ev):

   -23.5496 -23.5441  -9.1227  -9.0785  -8.9816  -8.9660  -8.8393  -8.8294
    -5.2313  -4.6807  -4.3645  -4.2767  -1.0018  -0.9573  -0.7678  -0.1596
    -0.1102   0.0939   0.1040   0.6274   0.6966   0.7589   0.8591   0.9206

          k = 0.0000 0.2439-0.7214 ( 23610 PWs)   bands (ev):

   -23.5392 -23.5392  -9.3319  -9.3317  -8.8803  -8.8803  -8.8362  -8.8362
    -4.9056  -4.9056  -4.1668  -4.1668  -1.0987  -1.0980  -0.7565  -0.7557
     0.2463   0.2465   0.3075   0.3091   0.6776   0.6776   0.8769   0.8770

          k = 0.0000-0.4878 0.0000 ( 23608 PWs)   bands (ev):

   -23.5544 -23.5544  -9.0492  -9.0492  -8.9422  -8.9422  -8.7393  -8.7393
    -5.1302  -5.1302  -4.4455  -4.4455  -0.8872  -0.8872  -0.2418  -0.2418
     0.0024   0.0024   0.5527   0.5527   0.6817   0.6817   0.8124   0.8124

          k = 0.0000-0.4878 0.3607 ( 23596 PWs)   bands (ev):

   -23.5468 -23.5468  -9.1228  -9.1228  -8.9128  -8.9128  -8.8771  -8.8771
    -4.9545  -4.9545  -4.3484  -4.3484  -0.9439  -0.9439  -0.5175  -0.5175
     0.1530   0.1530   0.4458   0.4458   0.6114   0.6114   0.8323   0.8323

          k = 0.0000-0.4878-0.7214 ( 23612 PWs)   bands (ev):

   -23.5392 -23.5392  -9.3462  -9.3462  -8.8612  -8.8612  -8.8330  -8.8330
    -5.0525  -5.0525  -4.0060  -4.0060  -1.1963  -1.1963  -0.4857  -0.4857
     0.1615   0.1615   0.3796   0.3796   0.4731   0.4731   0.9152   0.9152

          k = 0.2501 0.0000 0.0000 ( 23618 PWs)   bands (ev):

   -23.5583 -23.5505  -9.1327  -9.0558  -8.9004  -8.8678  -8.7659  -8.7132
    -5.6854  -4.9141  -4.1715  -4.1551  -1.4066  -0.5022  -0.4738  -0.3523
     0.2183   0.2632   0.3236   0.4009   0.4957   0.5322   0.9478   0.9869

          k = 0.2501 0.0000 0.3607 ( 23624 PWs)   bands (ev):

   -23.5495 -23.5441  -9.1128  -9.0925  -9.0152  -8.9377  -8.8584  -8.8152
    -5.1806  -4.5723  -4.3791  -4.3609  -1.1740  -0.9139  -0.7750  -0.2041
    -0.1962   0.1021   0.3386   0.4791   0.6306   0.7613   0.9700   0.9985

          k = 0.2501 0.0000-0.7214 ( 23622 PWs)   bands (ev):

   -23.5392 -23.5392  -9.3377  -9.3375  -8.8859  -8.8859  -8.8335  -8.8335
    -4.6877  -4.6874  -4.3630  -4.3627  -1.4637  -1.4633  -0.4706  -0.4703
     0.1601   0.1605   0.5241   0.5255   0.6543   0.6544   0.9115   0.9119

          k = 0.2501 0.2439 0.0000 ( 23618 PWs)   bands (ev):

[...]
     0.99483659     0.00000000     0.00000000
     0.00000000     1.02625729     0.00000000
     0.00000000     0.00000000     0.69552235
New lattice vectors in INITIAL alat:
     0.99483659     0.00000000     0.00000000
     0.00000000     1.02625729     0.00000000
     0.00000000     0.00000000     0.69552235
New lattice vectors in NEW alat (for information only):
     1.00000000     0.00000000     0.00000000
     0.00000000     1.03158378     0.00000000
     0.00000000     0.00000000     0.69913225
Discrepancy in bohr =     0.000000    0.000000    0.000000
     new conv_thr            =            1.0E-12 Ry

     new unit-cell volume =   1398.43088 a.u.^3 (   207.22608 Ang^3 )
     density =      2.67660 g/cm^3

CELL_PARAMETERS (alat= 12.53450834)
   0.994836591   0.000000000   0.000000000
   0.000000000   1.026257290   0.000000000
   0.000000000   0.000000000   0.695522349

ATOMIC_POSITIONS (crystal)
Ba               0.5000000000        0.5000000000        0.5000079661
Ba               0.0000000000        0.0000000000        0.9999920339
B                0.6073725043        0.2372796174       -0.0000035638
B                0.3926274957        0.7627203826       -0.0000035638
B                0.1073725043        0.2627203826        0.5000035638
B                0.8926274957        0.7372796174        0.5000035638
H                0.4299602487        0.2928377350       -0.0000126702
H                0.5700397513        0.7071622650       -0.0000126702
H                0.9299602487        0.2071622650        0.5000126702
H                0.0700397513        0.7928377350        0.5000126702
H                0.7225535644        0.3810126765        0.0000196769
H                0.2774464356        0.6189873235        0.0000196769
H                0.2225535644        0.1189873235        0.4999803231
H                0.7774464356        0.8810126765        0.4999803231
H                0.6355667185        0.1392651184        0.7800885500
H                0.3644332815        0.8607348816        0.7800885500
H                0.1355667185        0.3607348816        0.7199114500
H                0.8644332815        0.6392651184        0.7199114500
H                0.3644524768        0.8607275037        0.2199123936
H                0.6355475232        0.1392724963        0.2199123936
H                0.8644524768        0.6392724963        0.2800876064
H                0.1355475232        0.3607275037        0.2800876064



     Writing config-only to output data dir ./pwscf.save/ :
     XML data file
     NEW-OLD atomic charge density approx. for the potential

     total cpu time spent up to now is     3136.8 secs

     Self-consistent Calculation

     iteration #  1     ecut=   100.00 Ry     beta= 0.70
     Davidson diagonalization with overlap
     ethr =  1.00E-06,  avg # of iterations =  1.0

     Threshold (ethr) on eigenvalues was too large:
     Diagonalizing with lowered threshold

     Davidson diagonalization with overlap
     ethr =  3.17E-13,  avg # of iterations =  4.4

     total cpu time spent up to now is     3150.8 secs

     total energy              =    -156.47449279 Ry
     estimated scf accuracy    <          3.6E-11 Ry

     iteration #  2     ecut=   100.00 Ry     beta= 0.70
     Davidson diagonalization with overlap
     ethr =  1.00E-13,  avg # of iterations =  1.9

     total cpu time spent up to now is     3156.2 secs

     total energy              =    -156.47449279 Ry
     estimated scf accuracy    <          1.7E-12 Ry

     iteration #  3     ecut=   100.00 Ry     beta= 0.70
     Davidson diagonalization with overlap
     ethr =  1.00E-13,  avg # of iterations =  1.0

     total cpu time spent up to now is     3161.1 secs

     End of self-consistent calculation

          k = 0.0000 0.0000 0.0000 ( 23621 PWs)   bands (ev):

   -23.5770 -23.5662  -9.1820  -9.0770  -8.8568  -8.8140  -8.7900  -8.7163
    -5.8903  -4.8862  -4.1212  -3.9613  -1.5956  -0.6606  -0.5576  -0.2188
     0.1976   0.2426   0.2508   0.4149   0.5319   1.0002   1.0121   1.0563

          k = 0.0000 0.0000 0.3594 ( 23590 PWs)   bands (ev):

   -23.5682 -23.5605  -9.0756  -9.0701  -9.0433  -9.0041  -8.8370  -8.8140
    -5.3498  -4.6057  -4.3125  -4.2146  -1.1978  -0.9042  -0.4182  -0.4107
    -0.2643  -0.1264   0.2647   0.5774   0.7700   0.8408   0.9243   1.0769

          k = 0.0000 0.0000-0.7189 ( 23652 PWs)   bands (ev):

   -23.5572 -23.5572  -9.3090  -9.3090  -8.9135  -8.9134  -8.8473  -8.8473
    -4.5958  -4.5958  -4.4884  -4.4884  -0.9602  -0.9600  -0.9059  -0.9058
     0.1562   0.1564   0.2712   0.2712   0.8906   0.8908   0.9039   0.9039

          k = 0.0000 0.2436 0.0000 ( 23557 PWs)   bands (ev):

   -23.5754 -23.5678  -9.1493  -9.0418  -8.9221  -8.8548  -8.7790  -8.7268
    -5.6693  -4.7769  -4.4473  -4.1120  -1.1944  -0.7485  -0.7371   0.0767
     0.0897   0.1237   0.4624   0.5874   0.6483   0.6551   0.9062   0.9823

          k = 0.0000 0.2436 0.3594 ( 23598 PWs)   bands (ev):

   -23.5671 -23.5617  -9.1260  -9.0804  -8.9870  -8.9710  -8.8481  -8.8397
    -5.2381  -4.6877  -4.3555  -4.2583  -0.9953  -0.9309  -0.7383  -0.1529
    -0.0913   0.0876   0.1098   0.6397   0.7001   0.7843   0.8776   0.9417

          k = 0.0000 0.2436-0.7189 ( 23610 PWs)   bands (ev):

   -23.5571 -23.5571  -9.3252  -9.3252  -8.8909  -8.8909  -8.8460  -8.8460
    -4.9065  -4.9065  -4.1646  -4.1646  -1.0496  -1.0496  -0.7530  -0.7529
     0.2389   0.2391   0.3095   0.3095   0.6899   0.6901   0.9049   0.9050

          k = 0.0000-0.4872 0.0000 ( 23608 PWs)   bands (ev):

   -23.5716 -23.5716  -9.0541  -9.0541  -8.9483  -8.9483  -8.7526  -8.7526
    -5.1208  -5.1208  -4.4421  -4.4421  -0.8671  -0.8671  -0.2387  -0.2387
     0.0002   0.0002   0.5662   0.5662   0.7152   0.7152   0.8311   0.8311

          k = 0.0000-0.4872 0.3594 ( 23596 PWs)   bands (ev):

   -23.5644 -23.5644  -9.1253  -9.1253  -8.9184  -8.9184  -8.8862  -8.8862
    -4.9609  -4.9609  -4.3359  -4.3359  -0.9154  -0.9154  -0.5116  -0.5116
     0.1747   0.1747   0.4349   0.4349   0.6345   0.6345   0.8475   0.8475

          k = 0.0000-0.4872-0.7189 ( 23612 PWs)   bands (ev):

   -23.5571 -23.5571  -9.3400  -9.3400  -8.8719  -8.8719  -8.8425  -8.8425
    -5.0524  -5.0524  -4.0054  -4.0054  -1.1445  -1.1445  -0.4776  -0.4776
     0.1415   0.1415   0.3802   0.3802   0.4976   0.4976   0.9333   0.9333

          k = 0.2513 0.0000 0.0000 ( 23618 PWs)   bands (ev):

   -23.5754 -23.5677  -9.1373  -9.0584  -8.9078  -8.8774  -8.7790  -8.7268
    -5.6766  -4.9068  -4.1688  -4.1377  -1.3958  -0.4925  -0.4737  -0.3434
     0.2176   0.2795   0.3465   0.4483   0.5086   0.5305   0.9625   1.0003

          k = 0.2513 0.0000 0.3594 ( 23624 PWs)   bands (ev):

   -23.5671 -23.5616  -9.1152  -9.0959  -9.0208  -8.9429  -8.8675  -8.8256
    -5.1841  -4.5796  -4.3584  -4.3518  -1.1666  -0.9008  -0.7486  -0.2069
    -0.1958   0.1145   0.3622   0.5004   0.6404   0.7692   0.9955   1.0238

          k = 0.2513 0.0000-0.7189 ( 23622 PWs)   bands (ev):

   -23.5571 -23.5571  -9.3313  -9.3313  -8.8967  -8.8967  -8.8436  -8.8436
    -4.6727  -4.6726  -4.3743  -4.3743  -1.4447  -1.4447  -0.4520  -0.4518
     0.1513   0.1514   0.5391   0.5391   0.6832   0.6834   0.9321   0.9323

          k = 0.2513 0.2436 0.0000 ( 23618 PWs)   bands (ev):

   -23.5743 -23.5688  -9.1702  -9.0321  -8.9705  -8.8207  -8.7709  -8.7340
    -5.5219  -4.8501  -4.4507  -4.1772  -1.0743  -0.7223  -0.5072  -0.0310
     0.0324   0.0829   0.4349   0.5906   0.6149   0.6845   0.7316   0.9085

          k = 0.2513 0.2436 0.3594 ( 23610 PWs)   bands (ev):

   -23.5663 -23.5624  -9.1190  -9.0706  -9.0671  -8.9182  -8.8820  -8.8172
    -5.0901  -4.6252  -4.4490  -4.3454  -1.1255  -0.8643  -0.7575  -0.1783
    -0.0194   0.1720   0.2714   0.5037   0.6292   0.7384   0.9032   0.9951

          k = 0.2513 0.2436-0.7189 ( 23636 PWs)   bands (ev):

   -23.5571 -23.5571  -9.3393  -9.3111  -8.9239  -8.8741  -8.8532  -8.8437
    -4.9126  -4.7115  -4.3253  -4.1186  -1.4093  -1.3334  -0.5090  -0.4048
     0.0906   0.1037   0.4963   0.5630   0.6937   0.7350   0.8667   0.9147

          k = 0.2513-0.4872 0.0000 ( 23590 PWs)   bands (ev):

   -23.5715 -23.5715  -9.1424  -9.1424  -8.8608  -8.8608  -8.7521  -8.7521
    -5.1242  -5.1242  -4.4246  -4.4246  -0.7626  -0.7626  -0.2426  -0.2426
    -0.0423  -0.0423   0.4833   0.4833   0.7547   0.7547   0.7568   0.7568

          k = 0.2513-0.4872 0.3594 ( 23602 PWs)   bands (ev):

   -23.5643 -23.5643  -9.1128  -9.1128  -8.9943  -8.9943  -8.8331  -8.8331
    -4.8573  -4.8573  -4.4148  -4.4148  -1.0243  -1.0243  -0.4007  -0.4007
     0.1306   0.1306   0.4684   0.4684   0.6240   0.6240   0.8751   0.8751

          k = 0.2513-0.4872-0.7189 ( 23628 PWs)   bands (ev):

   -23.5571 -23.5571  -9.3204  -9.3204  -8.9023  -8.9023  -8.8510  -8.8510
    -4.9262  -4.9262  -4.0945  -4.0945  -1.2882  -1.2882  -0.5174  -0.5174
     0.2236   0.2236   0.3575   0.3575   0.7295   0.7295   0.8913   0.8913

          k =-0.5026 0.0000 0.0000 ( 23624 PWs)   bands (ev):

   -23.5715 -23.5715  -9.0257  -9.0257  -8.9892  -8.9892  -8.7526  -8.7526
    -5.2061  -5.2061  -4.2496  -4.2496  -0.9478  -0.9478  -0.1159  -0.1159
     0.2569   0.2569   0.3076   0.3076   0.4018   0.4018   0.8461   0.8461

          k =-0.5026 0.0000 0.3594 ( 23600 PWs)   bands (ev):

   -23.5643 -23.5643  -9.1313  -9.1313  -8.9466  -8.9466  -8.8677  -8.8677
    -4.7993  -4.7993  -4.4336  -4.4336  -1.0893  -1.0893  -0.4846  -0.4846
     0.1297   0.1297   0.3424   0.3424   0.7441   0.7441   0.9818   0.9818

          k =-0.5026 0.0000-0.7189 ( 23668 PWs)   bands (ev):

   -23.5571 -23.5571  -9.3518  -9.3518  -8.8828  -8.8828  -8.8388  -8.8388
    -4.7168  -4.7168  -4.2893  -4.2893  -1.6745  -1.6745  -0.1260  -0.1260
     0.1468   0.1468   0.3507   0.3507   0.8804   0.8804   0.8932   0.8932

          k =-0.5026 0.2436 0.0000 ( 23626 PWs)   bands (ev):

   -23.5715 -23.5715  -9.1410  -9.1410  -8.8684  -8.8684  -8.7521  -8.7521
    -5.1711  -5.1711  -4.3243  -4.3243  -0.8205  -0.8205  -0.1065  -0.1065
     0.0306   0.0306   0.2452   0.2452   0.6554   0.6554   0.8163   0.8163

          k =-0.5026 0.2436 0.3594 ( 23612 PWs)   bands (ev):

   -23.5643 -23.5643  -9.1169  -9.1169  -8.9989  -8.9989  -8.8321  -8.8321
    -4.7523  -4.7523  -4.4874  -4.4874  -1.0931  -1.0931  -0.4362  -0.4362
     0.1513   0.1513   0.4005   0.4005   0.7248   0.7248   0.9031   0.9031

          k =-0.5026 0.2436-0.7189 ( 23628 PWs)   bands (ev):

   -23.5571 -23.5571  -9.3269  -9.3269  -8.9053  -8.9053  -8.8507  -8.8507
    -4.7402  -4.7402  -4.2545  -4.2545  -1.5605  -1.5605  -0.3413  -0.3413
     0.1886   0.1886   0.4331   0.4331   0.8063   0.8063   0.9433   0.9433

          k =-0.5026-0.4872 0.0000 ( 23600 PWs)   bands (ev):

   -23.5715 -23.5715  -9.1940  -9.1940  -8.8099  -8.8099  -8.7516  -8.7516
    -5.1303  -5.1303  -4.4032  -4.4032  -0.6346  -0.6346  -0.2725  -0.2725
    -0.0807  -0.0807   0.4503   0.4503   0.6287   0.6287   0.7944   0.7944

          k =-0.5026-0.4872 0.3594 ( 23592 PWs)   bands (ev):

   -23.5643 -23.5643  -9.0904  -9.0904  -9.0483  -9.0483  -8.8116  -8.8116
    -4.6707  -4.6707  -4.5753  -4.5753  -1.0783  -1.0783  -0.4702  -0.4702
     0.3473   0.3473   0.4479   0.4479   0.6441   0.6441   0.7842   0.7842

          k =-0.5026-0.4872-0.7189 ( 23624 PWs)   bands (ev):

   -23.5570 -23.5570  -9.2981  -9.2981  -8.9353  -8.9353  -8.8590  -8.8590
    -4.7615  -4.7615  -4.2214  -4.2214  -1.3887  -1.3887  -0.6544  -0.6544
     0.4705   0.4705   0.4730   0.4730   0.6657   0.6657   0.8954   0.8954

     highest occupied level (ev):     1.0769

!    total energy              =    -156.47449279 Ry
     estimated scf accuracy    <          4.1E-14 Ry

     The total energy is the sum of the following terms:
     one-electron contribution =     -19.45945521 Ry
     hartree contribution      =      24.57196892 Ry
     xc contribution           =     -49.18128180 Ry
     ewald contribution        =    -112.40572470 Ry

     convergence has been achieved in   3 iterations

     Forces acting on atoms (cartesian axes, Ry/au):

     atom    1 type  2   force =     0.00000000    0.00000000   -0.00001113
     atom    2 type  2   force =     0.00000000    0.00000000    0.00001113
     atom    3 type  1   force =     0.00000124    0.00000100    0.00000708
     atom    4 type  1   force =    -0.00000124   -0.00000100    0.00000708
     atom    5 type  1   force =     0.00000124   -0.00000100   -0.00000708
     atom    6 type  1   force =    -0.00000124    0.00000100   -0.00000708
     atom    7 type  3   force =     0.00000064   -0.00000246   -0.00000085
     atom    8 type  3   force =    -0.00000064    0.00000246   -0.00000085
     atom    9 type  3   force =     0.00000064    0.00000246    0.00000085
     atom   10 type  3   force =    -0.00000064   -0.00000246    0.00000085
     atom   11 type  3   force =     0.00000233    0.00000057   -0.00001043
     atom   12 type  3   force =    -0.00000233   -0.00000057   -0.00001043
     atom   13 type  3   force =     0.00000233   -0.00000057    0.00001043
     atom   14 type  3   force =    -0.00000233    0.00000057    0.00001043
     atom   15 type  3   force =    -0.00000391    0.00000859    0.00000393
     atom   16 type  3   force =     0.00000391   -0.00000859    0.00000393
     atom   17 type  3   force =    -0.00000391   -0.00000859   -0.00000393
     atom   18 type  3   force =     0.00000391    0.00000859   -0.00000393
     atom   19 type  3   force =    -0.00000041    0.00000790    0.00000406
     atom   20 type  3   force =     0.00000041   -0.00000790    0.00000406
     atom   21 type  3   force =    -0.00000041   -0.00000790   -0.00000406
     atom   22 type  3   force =     0.00000041    0.00000790   -0.00000406

     Total force =     0.000041     Total SCF correction =     0.000000


     Computing stress (Cartesian axis) and pressure

          total   stress  (Ry/bohr**3)                   (kbar)     P=        3.80
   0.00002586   0.00000000   0.00000000            3.80        0.00        0.00
   0.00000000   0.00002586   0.00000000            0.00        3.80        0.00
   0.00000000   0.00000000   0.00002586            0.00        0.00        3.80

     Volume is kept fixed: isostatic pressure set to zero
     Message from routine bfgs:
     history already reset at previous step: exiting
     Energy error            =      2.1E-09 Ry
     Gradient error          =      1.1E-05 Ry/Bohr
     Cell gradient error     =      5.7E-04 kbar
ibrav =      8
 celldm(1) =     12.46978755
 celldm(2) =      1.03158378
 celldm(3) =      0.69913225
Input lattice vectors:
     0.99483659     0.00000000     0.00000000
     0.00000000     1.02625729     0.00000000
     0.00000000     0.00000000     0.69552235
New lattice vectors in INITIAL alat:
     0.99483659     0.00000000     0.00000000
     0.00000000     1.02625729     0.00000000
     0.00000000     0.00000000     0.69552235
New lattice vectors in NEW alat (for information only):
     1.00000000     0.00000000     0.00000000
     0.00000000     1.03158378     0.00000000
     0.00000000     0.00000000     0.69913225
Discrepancy in bohr =     0.000000    0.000000    0.000000

     bfgs failed after  55 scf cycles and  54 bfgs steps, convergence not achieved
     (criteria: energy <  1.0E-05 Ry, force <  1.0E-05 Ry/Bohr, cell <  5.0E-01 kbar)

     End of BFGS Geometry Optimization

     Final enthalpy           =    -156.4744927924 Ry

     File ./pwscf.bfgs deleted, as requested
Begin final coordinates
     new unit-cell volume =   1398.43088 a.u.^3 (   207.22608 Ang^3 )
     density =      2.67660 g/cm^3

CELL_PARAMETERS (alat= 12.53450834)
   0.994836591   0.000000000   0.000000000
   0.000000000   1.026257290   0.000000000
   0.000000000   0.000000000   0.695522349

ATOMIC_POSITIONS (crystal)
Ba               0.5000000000        0.5000000000        0.5000079661
Ba               0.0000000000        0.0000000000        0.9999920339
B                0.6073725043        0.2372796174       -0.0000035638
B                0.3926274957        0.7627203826       -0.0000035638
B                0.1073725043        0.2627203826        0.5000035638
B                0.8926274957        0.7372796174        0.5000035638
H                0.4299602487        0.2928377350       -0.0000126702
H                0.5700397513        0.7071622650       -0.0000126702
H                0.9299602487        0.2071622650        0.5000126702
H                0.0700397513        0.7928377350        0.5000126702
H                0.7225535644        0.3810126765        0.0000196769
H                0.2774464356        0.6189873235        0.0000196769
H                0.2225535644        0.1189873235        0.4999803231
H                0.7774464356        0.8810126765        0.4999803231
H                0.6355667185        0.1392651184        0.7800885500
H                0.3644332815        0.8607348816        0.7800885500
H                0.1355667185        0.3607348816        0.7199114500
H                0.8644332815        0.6392651184        0.7199114500
H                0.3644524768        0.8607275037        0.2199123936
H                0.6355475232        0.1392724963        0.2199123936
H                0.8644524768        0.6392724963        0.2800876064
H                0.1355475232        0.3607275037        0.2800876064
End final coordinates



     Writing config-only to output data dir ./pwscf.save/ :
     XML data file

     Writing all to output data dir ./pwscf.save/ :
     XML data file, charge density, pseudopotentials, collected wavefunctions

     init_run     :      4.34s CPU      4.55s WALL (       1 calls)
     electrons    :   2636.75s CPU   2732.77s WALL (      55 calls)
     update_pot   :      5.29s CPU      5.87s WALL (      54 calls)
     forces       :     90.66s CPU     91.56s WALL (      55 calls)
     stress       :    325.63s CPU    326.83s WALL (      55 calls)

     Called by init_run:
     wfcinit      :      3.14s CPU      3.26s WALL (       1 calls)
     potinit      :      0.37s CPU      0.37s WALL (       1 calls)
     hinit0       :      0.58s CPU      0.61s WALL (       1 calls)

     Called by electrons:
     c_bands      :   2275.57s CPU   2356.89s WALL (     387 calls)
     sum_band     :    309.27s CPU    322.05s WALL (     387 calls)
     v_of_rho     :     23.63s CPU     24.47s WALL (     391 calls)
     newd         :     30.48s CPU     31.19s WALL (     391 calls)
     mix_rho      :      2.07s CPU      2.24s WALL (     387 calls)

     Called by c_bands:
     init_us_2    :     64.18s CPU     64.83s WALL (   23895 calls)
     cegterg      :   2153.26s CPU   2233.98s WALL (   10449 calls)

     Called by *egterg:
     cdiaghg      :     34.78s CPU     34.99s WALL (   38765 calls)
     h_psi        :   1397.63s CPU   1476.49s WALL (   41627 calls)
     s_psi        :    308.66s CPU    309.23s WALL (   41627 calls)
     g_psi        :      6.16s CPU      6.18s WALL (   31151 calls)

     Called by h_psi:
     h_psi:calbec :    326.06s CPU    333.45s WALL (   41627 calls)
     vloc_psi     :    763.98s CPU    834.79s WALL (   41627 calls)
     add_vuspsi   :    304.08s CPU    304.91s WALL (   41627 calls)

     General routines
     calbec       :    512.49s CPU    521.84s WALL (   59501 calls)
     fft          :     13.97s CPU     14.74s WALL (    6453 calls)
     ffts         :      0.92s CPU      0.95s WALL (     778 calls)
     fftw         :    783.92s CPU    855.69s WALL ( 1744762 calls)
     interpolate  :      1.66s CPU      1.75s WALL (     391 calls)
     davcio       :      0.00s CPU      0.03s WALL (      27 calls)

     Parallel routines

     PWSCF        :  51m 9.42s CPU  52m49.31s WALL


   This run was terminated on:  15: 6:56  12Jul2024            

=------------------------------------------------------------------------------=
   JOB DONE.
=------------------------------------------------------------------------------=
