
     Program PWSCF v.7.3.1 starts on 12Jul2024 at 12:17:15 

     This program is part of the open-source Quantum ESPRESSO suite
     for quantum simulation of materials; please cite
         "P. Giannozzi et al., J. Phys.:Condens. Matter 21 395502 (2009);
         "P. Giannozzi et al., J. Phys.:Condens. Matter 29 465901 (2017);
         "P. Giannozzi et al., J. Chem. Phys. 152 154105 (2020);
          URL http://www.quantum-espresso.org", 
     in publications or presentations arising from this work. More details at
     http://www.quantum-espresso.org/quote

     Parallel version (MPI), running on    24 processors

     MPI processes distributed on     1 nodes
     94469 MiB available memory on the printing compute node when the environment starts

     Waiting for input...
     Reading input from standard input

     Current dimensions of program PWSCF are:
     Max number of different atomic species (ntypx) = 10
     Max number of k-points (npk) =  40000
     Max angular momentum in pseudopotentials (lmaxx) =  4

     R & G space division:  proc/nbgrp/npool/nimage =      24
     Subspace diagonalization in iterative solution of the eigenvalue problem:
     a serial algorithm will be used


     Parallelization info
     --------------------
     sticks:   dense  smooth     PW     G-vecs:    dense   smooth      PW
     Min         434     217     58                22834     8071    1135
     Max         436     218     59                22835     8074    1137
     Sum       10437    5227   1403               548031   193729   27267

     Using Slab Decomposition


     Title: 
     pre-ph                                                                     


     bravais-lattice index     =            8
     lattice parameter (alat)  =      12.6565  a.u.
     unit-cell volume          =    1434.1051 (a.u.)^3
     number of atoms/cell      =           22
     number of atomic types    =            3
     number of electrons       =        48.00
     number of Kohn-Sham states=           24
     kinetic-energy cutoff     =     100.0000  Ry
     charge density cutoff     =     800.0000  Ry
     scf convergence threshold =      1.0E-10
     mixing beta               =       0.7000
     number of iterations used =            8  plain     mixing
     Exchange-correlation= PBESOL
                           (   1   4  10   8   0   0   0)

     celldm(1)=  12.656498  celldm(2)=   1.024085  celldm(3)=   0.690724
     celldm(4)=   0.000000  celldm(5)=   0.000000  celldm(6)=   0.000000

     crystal axes: (cart. coord. in units of alat)
               a(1) = (   1.000000   0.000000   0.000000 )  
               a(2) = (   0.000000   1.024085   0.000000 )  
               a(3) = (   0.000000   0.000000   0.690724 )  

     reciprocal axes: (cart. coord. in units 2 pi/alat)
               b(1) = (  1.000000  0.000000  0.000000 )  
               b(2) = (  0.000000  0.976481  0.000000 )  
               b(3) = (  0.000000  0.000000  1.447757 )  


     PseudoPot. # 1 for B  read from file:
     /home/mehlhorn/pseudos/b_pbesol_v1.4.uspp.F.UPF
     MD5 check sum: 369b69bef2c3aeed4453bd8b804fd6a8
     Pseudo is Ultrasoft + core correction, Zval =  3.0
     Generated by new atomic code, or converted to UPF format
     Using radial grid of  781 points,  4 beta functions with: 
                l(1) =   0
                l(2) =   0
                l(3) =   1
                l(4) =   1
     Q(r) pseudized with  8 coefficients,  rinner =    1.100   1.100   1.100


     PseudoPot. # 2 for Ba read from file:
     /home/mehlhorn/pseudos/Ba.nc.z_10.oncvpsp4.dojo.v4-sp.upf
     MD5 check sum: c10ed334bb677c0554edec7181ce9143
     Pseudo is Norm-conserving + core correction, Zval = 10.0
     Generated using ONCVPSP code by D. R. Hamann
     Using radial grid of 1938 points,  8 beta functions with: 
                l(1) =   0
                l(2) =   0
                l(3) =   1
                l(4) =   1
                l(5) =   2
                l(6) =   2
                l(7) =   3
                l(8) =   3

     PseudoPot. # 3 for H  read from file:
     /home/mehlhorn/pseudos/H_ONCV_PBEsol-1.0.upf
     MD5 check sum: 398ef8f67c0a7342c05c87c5e19ea467
     Pseudo is Norm-conserving, Zval =  1.0
     Generated using ONCVPSP code by D. R. Hamann
     Using radial grid of 1180 points,  2 beta functions with: 
                l(1) =   0
                l(2) =   0

     atomic species   valence    mass     pseudopotential
     B                 3.00    10.81100     B ( 1.00)
     Ba               10.00   137.32700     Ba( 1.00)
     H                 1.00     1.00794     H ( 1.00)

      4 Sym. Ops. (no inversion) found ( 2 have fractional translation)



   Cartesian axes

     site n.     atom                  positions (alat units)
         1        Ba     tau(   1) = (   0.5000000   0.5120426   0.3453603  )
         2        Ba     tau(   2) = (   0.0000000   0.0000000   0.6907250  )
         3        B      tau(   3) = (   0.6110133   0.2455404  -0.0000027  )
         4        B      tau(   4) = (   0.3889867   0.7785449  -0.0000027  )
         5        B      tau(   5) = (   0.1110133   0.2665022   0.3453645  )
         6        B      tau(   6) = (   0.8889867   0.7575830   0.3453645  )
         7        H      tau(   7) = (   0.4351467   0.2990349   0.0000209  )
         8        H      tau(   8) = (   0.5648533   0.7250503   0.0000209  )
         9        H      tau(   9) = (   0.9351467   0.2130077   0.3453408  )
        10        H      tau(  10) = (   0.0648533   0.8110776   0.3453408  )
        11        H      tau(  11) = (   0.7219178   0.3935696  -0.0000075  )
        12        H      tau(  12) = (   0.2780822   0.6305156  -0.0000075  )
        13        H      tau(  13) = (   0.2219178   0.1184730   0.3453692  )
        14        H      tau(  14) = (   0.7780822   0.9056123   0.3453692  )
        15        H      tau(  15) = (   0.6403692   0.1463075   0.5391614  )
        16        H      tau(  16) = (   0.3596308   0.8777778   0.5391614  )
        17        H      tau(  17) = (   0.1403692   0.3657351   0.4969238  )
        18        H      tau(  18) = (   0.8596308   0.6583501   0.4969238  )
        19        H      tau(  19) = (   0.3595982   0.8777712   0.1515533  )
        20        H      tau(  20) = (   0.6404018   0.1463140   0.1515533  )
        21        H      tau(  21) = (   0.8595982   0.6583566   0.1938084  )
        22        H      tau(  22) = (   0.1404018   0.3657286   0.1938084  )

     number of k points=    27
                       cart. coord. in units 2pi/alat
        k(    1) = (   0.0000000   0.0000000   0.0000000), wk =   0.0160000
        k(    2) = (   0.0000000   0.0000000   0.2895515), wk =   0.0320000
        k(    3) = (   0.0000000   0.0000000   0.5791029), wk =   0.0320000
        k(    4) = (   0.0000000   0.1952962   0.0000000), wk =   0.0320000
        k(    5) = (   0.0000000   0.1952962   0.2895515), wk =   0.0640000
        k(    6) = (   0.0000000   0.1952962   0.5791029), wk =   0.0640000
        k(    7) = (   0.0000000   0.3905925   0.0000000), wk =   0.0320000
        k(    8) = (   0.0000000   0.3905925   0.2895515), wk =   0.0640000
        k(    9) = (   0.0000000   0.3905925   0.5791029), wk =   0.0640000
        k(   10) = (   0.2000000   0.0000000   0.0000000), wk =   0.0320000
        k(   11) = (   0.2000000   0.0000000   0.2895515), wk =   0.0640000
        k(   12) = (   0.2000000   0.0000000   0.5791029), wk =   0.0640000
        k(   13) = (   0.2000000   0.1952962   0.0000000), wk =   0.0640000
        k(   14) = (   0.2000000   0.1952962   0.2895515), wk =   0.1280000
        k(   15) = (   0.2000000   0.1952962   0.5791029), wk =   0.1280000
        k(   16) = (   0.2000000   0.3905925   0.0000000), wk =   0.0640000
        k(   17) = (   0.2000000   0.3905925   0.2895515), wk =   0.1280000
        k(   18) = (   0.2000000   0.3905925   0.5791029), wk =   0.1280000
        k(   19) = (   0.4000000   0.0000000   0.0000000), wk =   0.0320000
        k(   20) = (   0.4000000   0.0000000   0.2895515), wk =   0.0640000
        k(   21) = (   0.4000000   0.0000000   0.5791029), wk =   0.0640000
        k(   22) = (   0.4000000   0.1952962   0.0000000), wk =   0.0640000
        k(   23) = (   0.4000000   0.1952962   0.2895515), wk =   0.1280000
        k(   24) = (   0.4000000   0.1952962   0.5791029), wk =   0.1280000
        k(   25) = (   0.4000000   0.3905925   0.0000000), wk =   0.0640000
        k(   26) = (   0.4000000   0.3905925   0.2895515), wk =   0.1280000
        k(   27) = (   0.4000000   0.3905925   0.5791029), wk =   0.1280000

     Dense  grid:   548031 G-vectors     FFT dimensions: ( 120, 120,  80)

     Smooth grid:   193729 G-vectors     FFT dimensions: (  90,  90,  60)

     Estimated max dynamical RAM per process >      66.73 MB

     Estimated total dynamical RAM >       1.56 GB

     Initial potential from superposition of free atoms

     starting charge      47.9682, renormalised to      48.0000
     Starting wfcs are   42 randomized atomic wfcs

     total cpu time spent up to now is       12.0 secs

     Self-consistent Calculation

     iteration #  1     ecut=   100.00 Ry     beta= 0.70
     Davidson diagonalization with overlap
     ethr =  1.00E-02,  avg # of iterations =  2.0

     total cpu time spent up to now is       28.4 secs

     total energy              =    -155.92650551 Ry
     estimated scf accuracy    <       2.09144642 Ry

     iteration #  2     ecut=   100.00 Ry     beta= 0.70
     Davidson diagonalization with overlap
     ethr =  4.36E-03,  avg # of iterations =  2.0

     total cpu time spent up to now is       44.1 secs

     total energy              =    -156.40915156 Ry
     estimated scf accuracy    <       0.37165492 Ry

     iteration #  3     ecut=   100.00 Ry     beta= 0.70
     Davidson diagonalization with overlap
     ethr =  7.74E-04,  avg # of iterations =  2.0

     total cpu time spent up to now is       59.9 secs

     total energy              =    -156.47112045 Ry
     estimated scf accuracy    <       0.00489232 Ry

     iteration #  4     ecut=   100.00 Ry     beta= 0.70
     Davidson diagonalization with overlap
     ethr =  1.02E-05,  avg # of iterations =  5.2

     total cpu time spent up to now is       82.7 secs

     total energy              =    -156.47419403 Ry
     estimated scf accuracy    <       0.00170843 Ry

     iteration #  5     ecut=   100.00 Ry     beta= 0.70
     Davidson diagonalization with overlap
     ethr =  3.56E-06,  avg # of iterations =  3.4

     total cpu time spent up to now is       99.1 secs

     total energy              =    -156.47478701 Ry
     estimated scf accuracy    <       0.00017196 Ry

     iteration #  6     ecut=   100.00 Ry     beta= 0.70
     Davidson diagonalization with overlap
     ethr =  3.58E-07,  avg # of iterations =  4.3

     total cpu time spent up to now is      117.3 secs

     total energy              =    -156.47485270 Ry
     estimated scf accuracy    <       0.00000102 Ry

     iteration #  7     ecut=   100.00 Ry     beta= 0.70
     Davidson diagonalization with overlap
     ethr =  2.13E-09,  avg # of iterations = 10.1

     total cpu time spent up to now is      157.9 secs

     total energy              =    -156.47486318 Ry
     estimated scf accuracy    <       0.00000093 Ry

     iteration #  8     ecut=   100.00 Ry     beta= 0.70
     Davidson diagonalization with overlap
     ethr =  1.94E-09,  avg # of iterations =  2.0

     total cpu time spent up to now is      173.6 secs

     total energy              =    -156.47486339 Ry
     estimated scf accuracy    <       0.00000002 Ry

     iteration #  9     ecut=   100.00 Ry     beta= 0.70
     Davidson diagonalization with overlap
     ethr =  3.74E-11,  avg # of iterations =  5.8

     total cpu time spent up to now is      194.7 secs

     total energy              =    -156.47486340 Ry
     estimated scf accuracy    <          3.8E-09 Ry

     iteration # 10     ecut=   100.00 Ry     beta= 0.70
     Davidson diagonalization with overlap
     ethr =  7.86E-12,  avg # of iterations =  2.6

     total cpu time spent up to now is      212.2 secs

     total energy              =    -156.47486340 Ry
     estimated scf accuracy    <          4.1E-10 Ry

     iteration # 11     ecut=   100.00 Ry     beta= 0.70
     Davidson diagonalization with overlap
     ethr =  8.51E-13,  avg # of iterations =  3.8

     total cpu time spent up to now is      229.7 secs

     End of self-consistent calculation

          k = 0.0000 0.0000 0.0000 ( 24203 PWs)   bands (ev):

   -23.8250 -23.8157  -9.3891  -9.2985  -9.0944  -9.0535  -9.0233  -8.9573
    -6.0079  -5.0468  -4.3465  -4.2037  -1.7063  -0.7853  -0.7117  -0.3658
     0.0130   0.0259   0.0915   0.1958   0.3774   0.7858   0.8011   0.8430

          k = 0.0000 0.0000 0.2896 ( 24210 PWs)   bands (ev):

   -23.8194 -23.8118  -9.3222  -9.2510  -9.2120  -9.1775  -9.0800  -9.0518
    -5.6505  -4.8483  -4.4721  -4.3653  -1.4243  -0.9936  -0.6319  -0.4844
    -0.3058  -0.1956   0.1035   0.3043   0.6235   0.6559   0.6591   0.8506

          k = 0.0000 0.0000 0.5791 ( 24246 PWs)   bands (ev):

   -23.8094 -23.8065  -9.4788  -9.4723  -9.1837  -9.1556  -9.0773  -9.0677
    -4.9976  -4.6723  -4.6615  -4.6376  -1.1612  -1.1345  -0.9323  -0.8557
    -0.2309  -0.1454   0.1778   0.2620   0.5740   0.5914   0.7421   0.7496

          k = 0.0000 0.1953 0.0000 ( 24213 PWs)   bands (ev):

   -23.8241 -23.8166  -9.3696  -9.2775  -9.1322  -9.0780  -9.0168  -8.9634
    -5.8743  -4.9839  -4.5474  -4.2911  -1.4568  -0.8585  -0.8472  -0.1325
    -0.0556  -0.0300   0.1776   0.3310   0.4424   0.5864   0.7282   0.7847

          k = 0.0000 0.1953 0.2896 ( 24209 PWs)   bands (ev):

   -23.8187 -23.8126  -9.3214  -9.2376  -9.2026  -9.1926  -9.0806  -9.0689
    -5.5552  -4.8240  -4.5938  -4.4159  -1.2604  -1.0239  -0.8185  -0.2573
    -0.1927  -0.1249  -0.0784   0.4035   0.5951   0.6082   0.6562   0.7362

          k = 0.0000 0.1953 0.5791 ( 24239 PWs)   bands (ev):

   -23.8091 -23.8068  -9.4899  -9.4836  -9.1609  -9.1432  -9.0775  -9.0740
    -5.0930  -4.9341  -4.5127  -4.4231  -1.1778  -1.1143  -1.0028  -0.7590
    -0.1281  -0.0159   0.1359   0.2696   0.4868   0.5751   0.6366   0.7353

          k = 0.0000 0.3906 0.0000 ( 24210 PWs)   bands (ev):

   -23.8218 -23.8189  -9.3124  -9.2389  -9.2004  -9.1400  -9.0001  -8.9797
    -5.5190  -5.0610  -4.7360  -4.5065  -1.0649  -0.9952  -0.7087  -0.1344
    -0.1285  -0.0351   0.2206   0.4168   0.4632   0.5035   0.5885   0.7007

          k = 0.0000 0.3906 0.2896 ( 24228 PWs)   bands (ev):

   -23.8168 -23.8144  -9.3051  -9.2643  -9.1871  -9.1608  -9.1050  -9.0961
    -5.2989  -4.9668  -4.6637  -4.5379  -1.0497  -1.0189  -0.8153  -0.4135
    -0.0586   0.0175   0.1153   0.3457   0.4192   0.4682   0.6794   0.6817

          k = 0.0000 0.3906 0.5791 ( 24203 PWs)   bands (ev):

   -23.8084 -23.8075  -9.5045  -9.5017  -9.1179  -9.1176  -9.0911  -9.0862
    -5.1762  -5.1241  -4.3496  -4.3037  -1.2396  -1.2203  -0.7793  -0.6120
    -0.0163   0.0022   0.1642   0.2402   0.3914   0.4481   0.5882   0.6883

          k = 0.2000 0.0000 0.0000 ( 24202 PWs)   bands (ev):

   -23.8241 -23.8166  -9.3627  -9.2861  -9.1243  -9.0905  -9.0168  -8.9634
    -5.8793  -5.0599  -4.3751  -4.3171  -1.5769  -0.6594  -0.5918  -0.5632
     0.0456   0.0930   0.1704   0.1779   0.3471   0.4661   0.7958   0.8061

          k = 0.2000 0.0000 0.2896 ( 24194 PWs)   bands (ev):

   -23.8187 -23.8125  -9.3034  -9.2757  -9.2003  -9.1771  -9.0990  -9.0560
    -5.5410  -4.8419  -4.4977  -4.4646  -1.3329  -1.0214  -0.6754  -0.4608
    -0.2962  -0.1053   0.1514   0.3463   0.3900   0.6086   0.7644   0.8074

          k = 0.2000 0.0000 0.5791 ( 24254 PWs)   bands (ev):

   -23.8091 -23.8068  -9.4929  -9.4872  -9.1687  -9.1377  -9.0838  -9.0684
    -4.9671  -4.7569  -4.6542  -4.5576  -1.4788  -1.2871  -0.8456  -0.5523
    -0.1881   0.0673   0.1733   0.3175   0.4795   0.5992   0.6489   0.7668

          k = 0.2000 0.1953 0.0000 ( 24189 PWs)   bands (ev):

   -23.8234 -23.8173  -9.3746  -9.2427  -9.1952  -9.0629  -9.0115  -8.9683
    -5.7724  -5.0149  -4.5752  -4.3420  -1.3633  -0.8436  -0.6979  -0.2571
    -0.0790  -0.0238   0.3109   0.3280   0.3982   0.4484   0.6229   0.7644

          k = 0.2000 0.1953 0.2896 ( 24228 PWs)   bands (ev):

   -23.8181 -23.8131  -9.3141  -9.2617  -9.2221  -9.1595  -9.1030  -9.0569
    -5.4594  -4.8070  -4.6487  -4.4702  -1.2176  -1.0191  -0.8201  -0.3339
    -0.2112  -0.0618   0.0983   0.3430   0.4304   0.5703   0.6917   0.7784

          k = 0.2000 0.1953 0.5791 ( 24227 PWs)   bands (ev):

   -23.8089 -23.8070  -9.5027  -9.4786  -9.1801  -9.1130  -9.0916  -9.0718
    -5.0639  -4.8523  -4.6025  -4.4099  -1.4435  -1.2874  -0.7994  -0.5799
    -0.1366   0.0626   0.1750   0.3319   0.4456   0.5658   0.6296   0.7489

          k = 0.2000 0.3906 0.0000 ( 24205 PWs)   bands (ev):

   -23.8215 -23.8191  -9.3591  -9.2968  -9.1533  -9.0851  -8.9979  -8.9814
    -5.4827  -5.1142  -4.7007  -4.5125  -0.9968  -0.9489  -0.6564  -0.1683
    -0.1460  -0.0898   0.1298   0.4559   0.4849   0.5312   0.5621   0.6009

          k = 0.2000 0.3906 0.2896 ( 24209 PWs)   bands (ev):

   -23.8165 -23.8146  -9.3137  -9.2856  -9.2041  -9.1611  -9.0947  -9.0676
    -5.2382  -4.9416  -4.6971  -4.5697  -1.1019  -1.0154  -0.7576  -0.4327
    -0.0394   0.0206   0.1236   0.3512   0.3690   0.4906   0.6612   0.6941

          k = 0.2000 0.3906 0.5791 ( 24209 PWs)   bands (ev):

   -23.8083 -23.8075  -9.5003  -9.4859  -9.1643  -9.1258  -9.0853  -9.0750
    -5.1166  -5.0387  -4.4198  -4.3414  -1.3737  -1.3089  -0.6949  -0.5956
    -0.1006   0.0328   0.1752   0.3149   0.4663   0.5369   0.5893   0.6905

          k = 0.4000 0.0000 0.0000 ( 24214 PWs)   bands (ev):

   -23.8217 -23.8189  -9.2925  -9.2457  -9.1993  -9.1703  -9.0001  -8.9797
    -5.5572  -5.2119  -4.4573  -4.4390  -1.2638  -0.8989  -0.4503  -0.1355
    -0.0457   0.0887   0.1222   0.1497   0.2606   0.2877   0.6039   0.6999

          k = 0.4000 0.0000 0.2896 ( 24216 PWs)   bands (ev):

   -23.8167 -23.8144  -9.2865  -9.2746  -9.2201  -9.1707  -9.1100  -9.0761
    -5.2603  -4.9475  -4.5927  -4.5578  -1.1682  -0.9638  -0.8439  -0.4635
    -0.1573   0.0651   0.0771   0.1568   0.4350   0.5506   0.7495   0.7622

          k = 0.4000 0.0000 0.5791 ( 24244 PWs)   bands (ev):

   -23.8083 -23.8075  -9.5128  -9.5104  -9.1372  -9.1122  -9.0952  -9.0764
    -4.9098  -4.8457  -4.5913  -4.5337  -1.6639  -1.5864  -0.5404  -0.3487
    -0.0854   0.0461   0.1844   0.2880   0.5272   0.5879   0.6688   0.7401

          k = 0.4000 0.1953 0.0000 ( 24200 PWs)   bands (ev):

   -23.8215 -23.8191  -9.3560  -9.2939  -9.1618  -9.0925  -8.9979  -8.9814
    -5.5100  -5.2024  -4.5522  -4.4489  -1.1353  -0.9063  -0.4032  -0.2177
    -0.0851  -0.0548   0.0211   0.2476   0.3662   0.4242   0.5679   0.6847

          k = 0.4000 0.1953 0.2896 ( 24224 PWs)   bands (ev):

   -23.8165 -23.8146  -9.3086  -9.2881  -9.2169  -9.1701  -9.0918  -9.0634
    -5.2142  -4.9290  -4.6641  -4.5717  -1.1489  -0.9964  -0.8046  -0.4595
    -0.1378   0.0724   0.1309   0.2455   0.3994   0.5245   0.6869   0.7426

          k = 0.4000 0.1953 0.5791 ( 24248 PWs)   bands (ev):

   -23.8083 -23.8075  -9.5057  -9.4916  -9.1672  -9.1291  -9.0842  -9.0740
    -4.9597  -4.8135  -4.6230  -4.4747  -1.6081  -1.5442  -0.5596  -0.4527
    -0.0824   0.0357   0.1864   0.3271   0.5177   0.5819   0.6774   0.7558

          k = 0.4000 0.3906 0.0000 ( 24178 PWs)   bands (ev):

   -23.8207 -23.8198  -9.3932  -9.3707  -9.0815  -9.0533  -8.9924  -8.9861
    -5.3823  -5.2432  -4.6177  -4.5448  -0.8878  -0.8654  -0.5012  -0.2748
    -0.2015  -0.1896   0.1122   0.3283   0.4969   0.5335   0.5403   0.5560

          k = 0.4000 0.3906 0.2896 ( 24218 PWs)   bands (ev):

   -23.8159 -23.8152  -9.3288  -9.3196  -9.1992  -9.1798  -9.0621  -9.0509
    -5.0920  -4.9531  -4.7197  -4.6467  -1.1046  -1.0379  -0.7276  -0.5785
     0.0533   0.1729   0.1985   0.3196   0.3511   0.5034   0.5577   0.6346

          k = 0.4000 0.3906 0.5791 ( 24222 PWs)   bands (ev):

   -23.8080 -23.8077  -9.4808  -9.4703  -9.1930  -9.1721  -9.0749  -9.0733
    -4.9630  -4.8949  -4.5336  -4.4634  -1.4827  -1.4540  -0.7050  -0.6919
     0.0438   0.1776   0.2758   0.3169   0.4783   0.5010   0.6782   0.7171

     highest occupied level (ev):     0.8506

!    total energy              =    -156.47486340 Ry
     estimated scf accuracy    <          2.2E-11 Ry

     The total energy is the sum of the following terms:
     one-electron contribution =     -21.97713430 Ry
     hartree contribution      =      25.45270190 Ry
     xc contribution           =     -49.13672777 Ry
     ewald contribution        =    -110.81370323 Ry

     convergence has been achieved in  11 iterations

     Writing all to output data dir ./pwscf.save/ :
     XML data file, charge density, pseudopotentials, collected wavefunctions

     init_run     :     10.14s CPU     11.61s WALL (       1 calls)
     electrons    :    215.97s CPU    217.76s WALL (       1 calls)

     Called by init_run:
     wfcinit      :      7.70s CPU      7.75s WALL (       1 calls)
     potinit      :      0.58s CPU      1.05s WALL (       1 calls)
     hinit0       :      1.00s CPU      1.91s WALL (       1 calls)

     Called by electrons:
     c_bands      :    193.24s CPU    194.57s WALL (      11 calls)
     sum_band     :     19.15s CPU     19.43s WALL (      11 calls)
     v_of_rho     :      1.35s CPU      1.42s WALL (      12 calls)
     newd         :      2.16s CPU      2.18s WALL (      12 calls)
     mix_rho      :      0.19s CPU      0.23s WALL (      11 calls)

     Called by c_bands:
     init_us_2    :      3.81s CPU      3.87s WALL (     621 calls)
     cegterg      :    174.51s CPU    175.76s WALL (     297 calls)

     Called by *egterg:
     cdiaghg      :      2.85s CPU      2.87s WALL (    1463 calls)
     h_psi        :    129.81s CPU    130.90s WALL (    1490 calls)
     s_psi        :     22.49s CPU     22.57s WALL (    1490 calls)
     g_psi        :      0.47s CPU      0.47s WALL (    1166 calls)

     Called by h_psi:
     h_psi:calbec :     19.49s CPU     19.60s WALL (    1490 calls)
     vloc_psi     :     87.22s CPU     88.10s WALL (    1490 calls)
     add_vuspsi   :     22.73s CPU     22.83s WALL (    1490 calls)

     General routines
     calbec       :     24.81s CPU     24.94s WALL (    1787 calls)
     fft          :      1.64s CPU      2.59s WALL (     154 calls)
     ffts         :      0.49s CPU      0.94s WALL (      23 calls)
     fftw         :     86.41s CPU     87.31s WALL (   59006 calls)
     interpolate  :      0.52s CPU      0.98s WALL (      12 calls)

     Parallel routines

     PWSCF        :   3m46.99s CPU   3m50.97s WALL


   This run was terminated on:  12:21: 6  12Jul2024            

=------------------------------------------------------------------------------=
   JOB DONE.
=------------------------------------------------------------------------------=
