
     Program PHONON v.7.3.1 starts on 12Jul2024 at 12:21: 7 

     This program is part of the open-source Quantum ESPRESSO suite
     for quantum simulation of materials; please cite
         "P. Giannozzi et al., J. Phys.:Condens. Matter 21 395502 (2009);
         "P. Giannozzi et al., J. Phys.:Condens. Matter 29 465901 (2017);
         "P. Giannozzi et al., J. Chem. Phys. 152 154105 (2020);
          URL http://www.quantum-espresso.org", 
     in publications or presentations arising from this work. More details at
     http://www.quantum-espresso.org/quote

     Parallel version (MPI), running on    24 processors

     MPI processes distributed on     1 nodes
     94212 MiB available memory on the printing compute node when the environment starts

     Waiting for input...
     Reading input from standard input

     Reading xml data from directory:

     ./pwscf.save/

     R & G space division:  proc/nbgrp/npool/nimage =      24
     Subspace diagonalization in iterative solution of the eigenvalue problem:
     a serial algorithm will be used


     IMPORTANT: XC functional enforced from input :
     Exchange-correlation= PBESOL
                           (   1   4  10   8   0   0   0)
     Any further DFT definition will be discarded
     Please, verify this is what you really want


     Parallelization info
     --------------------
     sticks:   dense  smooth     PW     G-vecs:    dense   smooth      PW
     Min         434     217     58                22834     8071    1135
     Max         436     218     59                22835     8074    1137
     Sum       10437    5227   1403               548031   193729   27267

     Using Slab Decomposition

     Reading collected, re-writing distributed wavefunctions in ./


     Dynamical matrices for ( 3, 3, 3)  uniform grid of q-points
     (   8 q-points):
       N         xq(1)         xq(2)         xq(3) 
       1   0.000000000   0.000000000   0.000000000
       2   0.000000000   0.000000000   0.482585772
       3   0.000000000   0.325493732   0.000000000
       4   0.000000000   0.325493732   0.482585772
       5   0.333333333   0.000000000   0.000000000
       6   0.333333333   0.000000000   0.482585772
       7   0.333333333   0.325493732   0.000000000
       8   0.333333333   0.325493732   0.482585772

     Number and degeneracy of irreps per q-point
       N         xq(1)         xq(2)         xq(3)   N irreps
       1   0.000000000   0.000000000   0.000000000      66
     No degeneracy
       2   0.000000000   0.000000000   0.482585772      66
     No degeneracy
       3   0.000000000   0.325493732   0.000000000      66
     No degeneracy
       4   0.000000000   0.325493732   0.482585772      66
     No degeneracy
       5   0.333333333   0.000000000   0.000000000      66
     No degeneracy
       6   0.333333333   0.000000000   0.482585772      66
     No degeneracy
       7   0.333333333   0.325493732   0.000000000      66
     No degeneracy
       8   0.333333333   0.325493732   0.482585772      66
     No degeneracy

     Saving dvscf to file. Distribute only q points, not irreducible representations.

     Calculation of q =    0.0000000   0.0000000   0.0000000

                                                                                

     bravais-lattice index     =            8
     lattice parameter (alat)  =      12.6565  a.u.
     unit-cell volume          =    1434.1051 (a.u.)^3
     number of atoms/cell      =           22
     number of atomic types    =            3
     kinetic-energy cut-off    =     100.0000  Ry
     charge density cut-off    =     800.0000  Ry
     convergence threshold     =      1.0E-14
     beta                      =       0.7000
     number of iterations used =            4
     Exchange-correlation= PBESOL
                           (   1   4  10   8   0   0   0)


     celldm(1)=   12.65650  celldm(2)=    1.02409  celldm(3)=    0.69072
     celldm(4)=    0.00000  celldm(5)=    0.00000  celldm(6)=    0.00000

     crystal axes: (cart. coord. in units of alat)
               a(1) = (  1.0000  0.0000  0.0000 )  
               a(2) = (  0.0000  1.0241  0.0000 )  
               a(3) = (  0.0000  0.0000  0.6907 )  

     reciprocal axes: (cart. coord. in units 2 pi/alat)
               b(1) = (  1.0000  0.0000  0.0000 )  
               b(2) = (  0.0000  0.9765  0.0000 )  
               b(3) = (  0.0000  0.0000  1.4478 )  


     Atoms inside the unit cell: 

     Cartesian axes

     site n.  atom      mass           positions (alat units)
        1  Ba    137.3270   tau(    1) = (    0.50000    0.51204    0.34536  )
        2  Ba    137.3270   tau(    2) = (    0.00000    0.00000    0.69072  )
        3  B      10.8110   tau(    3) = (    0.61101    0.24554   -0.00000  )
        4  B      10.8110   tau(    4) = (    0.38899    0.77854   -0.00000  )
        5  B      10.8110   tau(    5) = (    0.11101    0.26650    0.34536  )
        6  B      10.8110   tau(    6) = (    0.88899    0.75758    0.34536  )
        7  H       1.0079   tau(    7) = (    0.43515    0.29903    0.00002  )
        8  H       1.0079   tau(    8) = (    0.56485    0.72505    0.00002  )
        9  H       1.0079   tau(    9) = (    0.93515    0.21301    0.34534  )
       10  H       1.0079   tau(   10) = (    0.06485    0.81108    0.34534  )
       11  H       1.0079   tau(   11) = (    0.72192    0.39357   -0.00001  )
       12  H       1.0079   tau(   12) = (    0.27808    0.63052   -0.00001  )
       13  H       1.0079   tau(   13) = (    0.22192    0.11847    0.34537  )
       14  H       1.0079   tau(   14) = (    0.77808    0.90561    0.34537  )
       15  H       1.0079   tau(   15) = (    0.64037    0.14631    0.53916  )
       16  H       1.0079   tau(   16) = (    0.35963    0.87778    0.53916  )
       17  H       1.0079   tau(   17) = (    0.14037    0.36574    0.49692  )
       18  H       1.0079   tau(   18) = (    0.85963    0.65835    0.49692  )
       19  H       1.0079   tau(   19) = (    0.35960    0.87777    0.15155  )
       20  H       1.0079   tau(   20) = (    0.64040    0.14631    0.15155  )
       21  H       1.0079   tau(   21) = (    0.85960    0.65836    0.19381  )
       22  H       1.0079   tau(   22) = (    0.14040    0.36573    0.19381  )

     Computing dynamical matrix for 
                    q = (   0.0000000   0.0000000   0.0000000 )

      5 Sym.Ops. (with q -> -q+G )


     G cutoff = 3246.0660  (  22835 G-vectors)     FFT grid: (120,120, 80)
     G cutoff = 1623.0330  (   8074 G-vectors)  smooth grid: ( 90, 90, 60)
     number of k points=    27

     PseudoPot. # 1 for B  read from file:
     /home/mehlhorn/pseudos/b_pbesol_v1.4.uspp.F.UPF
     MD5 check sum: 369b69bef2c3aeed4453bd8b804fd6a8
     Pseudo is Ultrasoft + core correction, Zval =  3.0
     Generated by new atomic code, or converted to UPF format
     Using radial grid of  781 points,  4 beta functions with: 
                l(1) =   0
                l(2) =   0
                l(3) =   1
                l(4) =   1
     Q(r) pseudized with  8 coefficients,  rinner =    1.100   1.100   1.100


     PseudoPot. # 2 for Ba read from file:
     /home/mehlhorn/pseudos/Ba.nc.z_10.oncvpsp4.dojo.v4-sp.upf
     MD5 check sum: c10ed334bb677c0554edec7181ce9143
     Pseudo is Norm-conserving + core correction, Zval = 10.0
     Generated using ONCVPSP code by D. R. Hamann
     Using radial grid of 1938 points,  8 beta functions with: 
                l(1) =   0
                l(2) =   0
                l(3) =   1
                l(4) =   1
                l(5) =   2
                l(6) =   2
                l(7) =   3
                l(8) =   3

     PseudoPot. # 3 for H  read from file:
     /home/mehlhorn/pseudos/H_ONCV_PBEsol-1.0.upf
     MD5 check sum: 398ef8f67c0a7342c05c87c5e19ea467
     Pseudo is Norm-conserving, Zval =  1.0
     Generated using ONCVPSP code by D. R. Hamann
     Using radial grid of 1180 points,  2 beta functions with: 
                l(1) =   0
                l(2) =   0

     Mode symmetry, D_2  (222)  point group:


     Electric field:
     Dielectric constant
     Born effective charges in two ways 


     Atomic displacements:
     There are   66 irreducible representations

     Representation     1      1 modes -  To be done

     Representation     2      1 modes -  To be done

     Representation     3      1 modes -  To be done

     Representation     4      1 modes -  To be done

     Representation     5      1 modes -  To be done

     Representation     6      1 modes -  To be done

     Representation     7      1 modes -  To be done

     Representation     8      1 modes -  To be done

     Representation     9      1 modes -  To be done

     Representation    10      1 modes -  To be done

     Representation    11      1 modes -  To be done

     Representation    12      1 modes -  To be done

     Representation    13      1 modes -  To be done

     Representation    14      1 modes -  To be done

     Representation    15      1 modes -  To be done

     Representation    16      1 modes -  To be done

     Representation    17      1 modes -  To be done

     Representation    18      1 modes -  To be done

     Representation    19      1 modes -  To be done

     Representation    20      1 modes -  To be done

     Representation    21      1 modes -  To be done

     Representation    22      1 modes -  To be done

     Representation    23      1 modes -  To be done

     Representation    24      1 modes -  To be done

     Representation    25      1 modes -  To be done

     Representation    26      1 modes -  To be done

     Representation    27      1 modes -  To be done

     Representation    28      1 modes -  To be done

     Representation    29      1 modes -  To be done

     Representation    30      1 modes -  To be done

     Representation    31      1 modes -  To be done

     Representation    32      1 modes -  To be done

     Representation    33      1 modes -  To be done

     Representation    34      1 modes -  To be done

     Representation    35      1 modes -  To be done

     Representation    36      1 modes -  To be done

     Representation    37      1 modes -  To be done

     Representation    38      1 modes -  To be done

     Representation    39      1 modes -  To be done

     Representation    40      1 modes -  To be done

     Representation    41      1 modes -  To be done

     Representation    42      1 modes -  To be done

     Representation    43      1 modes -  To be done

     Representation    44      1 modes -  To be done

     Representation    45      1 modes -  To be done

     Representation    46      1 modes -  To be done

     Representation    47      1 modes -  To be done

     Representation    48      1 modes -  To be done

     Representation    49      1 modes -  To be done

     Representation    50      1 modes -  To be done

     Representation    51      1 modes -  To be done

     Representation    52      1 modes -  To be done

     Representation    53      1 modes -  To be done

     Representation    54      1 modes -  To be done

     Representation    55      1 modes -  To be done

     Representation    56      1 modes -  To be done

     Representation    57      1 modes -  To be done

     Representation    58      1 modes -  To be done

     Representation    59      1 modes -  To be done

     Representation    60      1 modes -  To be done

     Representation    61      1 modes -  To be done

     Representation    62      1 modes -  To be done

     Representation    63      1 modes -  To be done

     Representation    64      1 modes -  To be done

     Representation    65      1 modes -  To be done

     Representation    66      1 modes -  To be done



     Alpha used in Ewald sum =   2.8000
     PHONON       :   3m25.96s CPU   3m29.94s WALL


     Electric Fields Calculation

      iter #   1 total cpu time :   846.1 secs   av.it.:   7.6
      thresh= 1.000E-02 alpha_mix =  0.700 |ddv_scf|^2 =  5.926E-09

      iter #   2 total cpu time :  1128.9 secs   av.it.:  16.9
      thresh= 7.698E-06 alpha_mix =  0.700 |ddv_scf|^2 =  9.748E-10

      iter #   3 total cpu time :  1398.8 secs   av.it.:  16.0
      thresh= 3.122E-06 alpha_mix =  0.700 |ddv_scf|^2 =  7.212E-11

      iter #   4 total cpu time :  1664.7 secs   av.it.:  15.7
      thresh= 8.492E-07 alpha_mix =  0.700 |ddv_scf|^2 =  1.031E-11

      iter #   5 total cpu time :  1925.3 secs   av.it.:  15.6
      thresh= 3.211E-07 alpha_mix =  0.700 |ddv_scf|^2 =  9.658E-13

      iter #   6 total cpu time :  2179.9 secs   av.it.:  15.7
      thresh= 9.827E-08 alpha_mix =  0.700 |ddv_scf|^2 =  2.331E-14

      iter #   7 total cpu time :  2444.5 secs   av.it.:  16.0
      thresh= 1.527E-08 alpha_mix =  0.700 |ddv_scf|^2 =  3.215E-15

     End of electric fields calculation

          Dielectric constant in cartesian axis 

          (       3.106564956       0.000000000       0.000000000 )
          (       0.000000000       3.164886867       0.000000000 )
          (       0.000000000       0.000000000       3.303999482 )

          Effective charges (d Force / dE) in cartesian axis without acoustic sum rule applied (asr)

           atom    1  Ba    Mean Z*:        2.65174
      Ex  (        2.48896       -0.04748        0.00000 )
      Ey  (        0.28638        2.50900        0.00000 )
      Ez  (        0.00000        0.00000        2.95725 )
           atom    2  Ba    Mean Z*:        2.65174
      Ex  (        2.48896        0.04748        0.00000 )
      Ey  (       -0.28638        2.50900        0.00000 )
      Ez  (        0.00000        0.00000        2.95725 )
           atom    3  B     Mean Z*:       -0.12882
      Ex  (       -0.14629        0.03177        0.00002 )
      Ey  (        0.17469       -0.03949       -0.00002 )
      Ez  (       -0.00002        0.00001       -0.20067 )
           atom    4  B     Mean Z*:       -0.12882
      Ex  (       -0.14629        0.03177       -0.00002 )
      Ey  (        0.17469       -0.03949        0.00002 )
      Ez  (        0.00002       -0.00001       -0.20067 )
           atom    5  B     Mean Z*:       -0.12882
      Ex  (       -0.14629       -0.03177       -0.00002 )
      Ey  (       -0.17469       -0.03949       -0.00002 )
      Ez  (        0.00002        0.00001       -0.20067 )
           atom    6  B     Mean Z*:       -0.12882
      Ex  (       -0.14629       -0.03177        0.00002 )
      Ey  (       -0.17469       -0.03949        0.00002 )
      Ez  (       -0.00002       -0.00001       -0.20067 )
           atom    7  H     Mean Z*:       -0.30921
      Ex  (       -0.43025        0.13787        0.00004 )
      Ey  (        0.14443       -0.24909       -0.00005 )
      Ez  (        0.00004       -0.00005       -0.24829 )
           atom    8  H     Mean Z*:       -0.30921
      Ex  (       -0.43025        0.13787       -0.00004 )
      Ey  (        0.14443       -0.24909        0.00005 )
      Ez  (       -0.00004        0.00005       -0.24829 )
           atom    9  H     Mean Z*:       -0.30921
      Ex  (       -0.43025       -0.13787       -0.00004 )
      Ey  (       -0.14443       -0.24909       -0.00005 )
      Ez  (       -0.00004       -0.00005       -0.24829 )
           atom   10  H     Mean Z*:       -0.30921
      Ex  (       -0.43025       -0.13787        0.00004 )
      Ey  (       -0.14443       -0.24909        0.00005 )
      Ez  (        0.00004        0.00005       -0.24829 )
           atom   11  H     Mean Z*:       -0.31260
      Ex  (       -0.26455       -0.04009        0.00000 )
      Ey  (       -0.11232       -0.42997       -0.00000 )
      Ez  (        0.00002        0.00001       -0.24329 )
           atom   12  H     Mean Z*:       -0.31260
      Ex  (       -0.26455       -0.04009       -0.00000 )
      Ey  (       -0.11232       -0.42997        0.00000 )
      Ez  (       -0.00002       -0.00001       -0.24329 )
           atom   13  H     Mean Z*:       -0.31260
      Ex  (       -0.26455        0.04009       -0.00000 )
      Ey  (        0.11232       -0.42997       -0.00000 )
      Ez  (       -0.00002        0.00001       -0.24329 )
           atom   14  H     Mean Z*:       -0.31260
      Ex  (       -0.26455        0.04009        0.00000 )
      Ey  (        0.11232       -0.42997        0.00000 )
      Ez  (        0.00002       -0.00001       -0.24329 )
           atom   15  H     Mean Z*:       -0.28738
      Ex  (       -0.20181        0.14693        0.06102 )
      Ey  (        0.09868       -0.26737       -0.09536 )
      Ez  (        0.02177       -0.11258       -0.39298 )
           atom   16  H     Mean Z*:       -0.28738
      Ex  (       -0.20181        0.14693       -0.06102 )
      Ey  (        0.09868       -0.26737        0.09536 )
      Ez  (       -0.02177        0.11258       -0.39298 )
           atom   17  H     Mean Z*:       -0.28738
      Ex  (       -0.20181       -0.14693       -0.06102 )
      Ey  (       -0.09868       -0.26737       -0.09536 )
      Ez  (       -0.02177       -0.11258       -0.39298 )
           atom   18  H     Mean Z*:       -0.28738
      Ex  (       -0.20181       -0.14693        0.06102 )
      Ey  (       -0.09868       -0.26737        0.09536 )
      Ez  (        0.02177        0.11258       -0.39298 )
           atom   19  H     Mean Z*:       -0.28742
      Ex  (       -0.20187        0.14699        0.06109 )
      Ey  (        0.09873       -0.26740       -0.09539 )
      Ez  (        0.02182       -0.11258       -0.39298 )
           atom   20  H     Mean Z*:       -0.28742
      Ex  (       -0.20187        0.14699       -0.06109 )
      Ey  (        0.09873       -0.26740        0.09539 )
      Ez  (       -0.02182        0.11258       -0.39298 )
           atom   21  H     Mean Z*:       -0.28742
      Ex  (       -0.20187       -0.14699       -0.06109 )
      Ey  (       -0.09873       -0.26740       -0.09539 )
      Ez  (       -0.02182       -0.11258       -0.39298 )
           atom   22  H     Mean Z*:       -0.28742
      Ex  (       -0.20187       -0.14699        0.06109 )
      Ey  (       -0.09873       -0.26740        0.09539 )
      Ez  (        0.02182        0.11258       -0.39298 )

          Effective charges Sum: Mean:        0.00173
             -0.00113        0.00000       -0.00000
              0.00000        0.00470        0.00000
              0.00000        0.00000        0.00161

          Effective charges (d Force / dE) in cartesian axis with asr applied: 
           atom    1  Ba    Mean Z*:        2.65166
      E*x (        2.48901       -0.04748       -0.00000 )
      E*y (        0.28638        2.50879       -0.00000 )
      E*z (        0.00000        0.00000        2.95718 )
           atom    2  Ba    Mean Z*:        2.65166
      E*x (        2.48901        0.04748       -0.00000 )
      E*y (       -0.28638        2.50879       -0.00000 )
      E*z (        0.00000        0.00000        2.95718 )
           atom    3  B     Mean Z*:       -0.12890
      E*x (       -0.14624        0.03177        0.00002 )
      E*y (        0.17469       -0.03971       -0.00002 )
      E*z (       -0.00002        0.00001       -0.20075 )
           atom    4  B     Mean Z*:       -0.12890
      E*x (       -0.14624        0.03177       -0.00002 )
      E*y (        0.17469       -0.03971        0.00002 )
      E*z (        0.00002       -0.00001       -0.20075 )
           atom    5  B     Mean Z*:       -0.12890
      E*x (       -0.14624       -0.03177       -0.00002 )
      E*y (       -0.17469       -0.03971       -0.00002 )
      E*z (        0.00002        0.00001       -0.20075 )
           atom    6  B     Mean Z*:       -0.12890
      E*x (       -0.14624       -0.03177        0.00002 )
      E*y (       -0.17469       -0.03971        0.00002 )
      E*z (       -0.00002       -0.00001       -0.20075 )
           atom    7  H     Mean Z*:       -0.30929
      E*x (       -0.43020        0.13787        0.00004 )
      E*y (        0.14443       -0.24931       -0.00005 )
      E*z (        0.00004       -0.00005       -0.24837 )
           atom    8  H     Mean Z*:       -0.30929
      E*x (       -0.43020        0.13787       -0.00004 )
      E*y (        0.14443       -0.24931        0.00005 )
      E*z (       -0.00004        0.00005       -0.24837 )
           atom    9  H     Mean Z*:       -0.30929
      E*x (       -0.43020       -0.13787       -0.00004 )
      E*y (       -0.14443       -0.24931       -0.00005 )
      E*z (       -0.00004       -0.00005       -0.24837 )
           atom   10  H     Mean Z*:       -0.30929
      E*x (       -0.43020       -0.13787        0.00004 )
      E*y (       -0.14443       -0.24931        0.00005 )
      E*z (        0.00004        0.00005       -0.24837 )
           atom   11  H     Mean Z*:       -0.31268
      E*x (       -0.26450       -0.04009        0.00000 )
      E*y (       -0.11232       -0.43018       -0.00000 )
      E*z (        0.00002        0.00001       -0.24337 )
           atom   12  H     Mean Z*:       -0.31268
      E*x (       -0.26450       -0.04009       -0.00000 )
      E*y (       -0.11232       -0.43018        0.00000 )
      E*z (       -0.00002       -0.00001       -0.24337 )
           atom   13  H     Mean Z*:       -0.31268
      E*x (       -0.26450        0.04009       -0.00000 )
      E*y (        0.11232       -0.43018       -0.00000 )
      E*z (       -0.00002        0.00001       -0.24337 )
           atom   14  H     Mean Z*:       -0.31268
      E*x (       -0.26450        0.04009        0.00000 )
      E*y (        0.11232       -0.43018        0.00000 )
      E*z (        0.00002       -0.00001       -0.24337 )
           atom   15  H     Mean Z*:       -0.28746
      E*x (       -0.20175        0.14693        0.06102 )
      E*y (        0.09868       -0.26758       -0.09536 )
      E*z (        0.02177       -0.11258       -0.39305 )
           atom   16  H     Mean Z*:       -0.28746
      E*x (       -0.20175        0.14693       -0.06102 )
      E*y (        0.09868       -0.26758        0.09536 )
      E*z (       -0.02177        0.11258       -0.39305 )
           atom   17  H     Mean Z*:       -0.28746
      E*x (       -0.20175       -0.14693       -0.06102 )
      E*y (       -0.09868       -0.26758       -0.09536 )
      E*z (       -0.02177       -0.11258       -0.39305 )
           atom   18  H     Mean Z*:       -0.28746
      E*x (       -0.20175       -0.14693        0.06102 )
      E*y (       -0.09868       -0.26758        0.09536 )
      E*z (        0.02177        0.11258       -0.39305 )
           atom   19  H     Mean Z*:       -0.28750
      E*x (       -0.20181        0.14699        0.06109 )
      E*y (        0.09873       -0.26762       -0.09539 )
      E*z (        0.02182       -0.11258       -0.39306 )
           atom   20  H     Mean Z*:       -0.28750
      E*x (       -0.20181        0.14699       -0.06109 )
      E*y (        0.09873       -0.26762        0.09539 )
      E*z (       -0.02182        0.11258       -0.39306 )
           atom   21  H     Mean Z*:       -0.28750
      E*x (       -0.20181       -0.14699       -0.06109 )
      E*y (       -0.09873       -0.26762       -0.09539 )
      E*z (       -0.02182       -0.11258       -0.39306 )
           atom   22  H     Mean Z*:       -0.28750
      E*x (       -0.20181       -0.14699        0.06109 )
      E*y (       -0.09873       -0.26762        0.09539 )
      E*z (        0.02182        0.11258       -0.39306 )


     Representation #   1 mode #   1

     Self-consistent Calculation

      iter #   1 total cpu time :  4901.2 secs   av.it.:   3.0
      thresh= 1.000E-02 alpha_mix =  0.700 |ddv_scf|^2 =  1.749E-09

      iter #   2 total cpu time :  4983.8 secs   av.it.:  15.6
      thresh= 4.182E-06 alpha_mix =  0.700 |ddv_scf|^2 =  3.765E-10

      iter #   3 total cpu time :  5068.0 secs   av.it.:  15.1
      thresh= 1.940E-06 alpha_mix =  0.700 |ddv_scf|^2 =  2.624E-12

      iter #   4 total cpu time :  5154.9 secs   av.it.:  15.6
      thresh= 1.620E-07 alpha_mix =  0.700 |ddv_scf|^2 =  4.775E-14

      iter #   5 total cpu time :  5243.2 secs   av.it.:  15.8
      thresh= 2.185E-08 alpha_mix =  0.700 |ddv_scf|^2 =  1.937E-15

     End of self-consistent calculation

     Convergence has been achieved 


     Representation #   2 mode #   2

     Self-consistent Calculation

      iter #   1 total cpu time :  5305.8 secs   av.it.:   3.0
      thresh= 1.000E-02 alpha_mix =  0.700 |ddv_scf|^2 =  1.412E-09

      iter #   2 total cpu time :  5395.5 secs   av.it.:  15.9
      thresh= 3.758E-06 alpha_mix =  0.700 |ddv_scf|^2 =  3.728E-10

      iter #   3 total cpu time :  5482.1 secs   av.it.:  15.2
      thresh= 1.931E-06 alpha_mix =  0.700 |ddv_scf|^2 =  3.070E-12

      iter #   4 total cpu time :  5570.9 secs   av.it.:  15.9
      thresh= 1.752E-07 alpha_mix =  0.700 |ddv_scf|^2 =  1.127E-13

      iter #   5 total cpu time :  5659.4 secs   av.it.:  15.8
      thresh= 3.357E-08 alpha_mix =  0.700 |ddv_scf|^2 =  4.982E-15

     End of self-consistent calculation

     Convergence has been achieved 


     Representation #   3 mode #   3

     Self-consistent Calculation

      iter #   1 total cpu time :  5720.7 secs   av.it.:   3.0
      thresh= 1.000E-02 alpha_mix =  0.700 |ddv_scf|^2 =  5.750E-10

      iter #   2 total cpu time :  5806.8 secs   av.it.:  15.9
      thresh= 2.398E-06 alpha_mix =  0.700 |ddv_scf|^2 =  4.703E-11

      iter #   3 total cpu time :  5890.9 secs   av.it.:  16.0
      thresh= 6.858E-07 alpha_mix =  0.700 |ddv_scf|^2 =  5.883E-12

      iter #   4 total cpu time :  5974.8 secs   av.it.:  15.8
      thresh= 2.426E-07 alpha_mix =  0.700 |ddv_scf|^2 =  1.007E-13

      iter #   5 total cpu time :  6060.7 secs   av.it.:  15.6
      thresh= 3.173E-08 alpha_mix =  0.700 |ddv_scf|^2 =  3.506E-15

     End of self-consistent calculation

     Convergence has been achieved 


     Representation #   4 mode #   4

     Self-consistent Calculation

      iter #   1 total cpu time :  6129.8 secs   av.it.:   5.0
      thresh= 1.000E-02 alpha_mix =  0.700 |ddv_scf|^2 =  1.168E-08

      iter #   2 total cpu time :  6217.9 secs   av.it.:  15.9
      thresh= 1.081E-05 alpha_mix =  0.700 |ddv_scf|^2 =  2.454E-09

      iter #   3 total cpu time :  6304.2 secs   av.it.:  15.1
      thresh= 4.954E-06 alpha_mix =  0.700 |ddv_scf|^2 =  1.956E-11

      iter #   4 total cpu time :  6392.0 secs   av.it.:  15.7
      thresh= 4.423E-07 alpha_mix =  0.700 |ddv_scf|^2 =  1.351E-12

      iter #   5 total cpu time :  6479.3 secs   av.it.:  15.7
      thresh= 1.162E-07 alpha_mix =  0.700 |ddv_scf|^2 =  1.737E-14

      iter #   6 total cpu time :  6565.6 secs   av.it.:  15.9
      thresh= 1.318E-08 alpha_mix =  0.700 |ddv_scf|^2 =  1.987E-16

     End of self-consistent calculation

     Convergence has been achieved 


     Representation #   5 mode #   5

     Self-consistent Calculation

      iter #   1 total cpu time :  6661.1 secs   av.it.:   6.5
      thresh= 1.000E-02 alpha_mix =  0.700 |ddv_scf|^2 =  5.899E-08

      iter #   2 total cpu time :  6745.9 secs   av.it.:  15.3
      thresh= 2.429E-05 alpha_mix =  0.700 |ddv_scf|^2 =  1.627E-08

      iter #   3 total cpu time :  6828.6 secs   av.it.:  14.6
      thresh= 1.275E-05 alpha_mix =  0.700 |ddv_scf|^2 =  3.220E-11

      iter #   4 total cpu time :  6913.4 secs   av.it.:  15.3
      thresh= 5.675E-07 alpha_mix =  0.700 |ddv_scf|^2 =  1.130E-12

      iter #   5 total cpu time :  6997.3 secs   av.it.:  14.8
      thresh= 1.063E-07 alpha_mix =  0.700 |ddv_scf|^2 =  1.090E-14

      iter #   6 total cpu time :  7081.6 secs   av.it.:  14.9
      thresh= 1.044E-08 alpha_mix =  0.700 |ddv_scf|^2 =  2.083E-16

     End of self-consistent calculation

     Convergence has been achieved 


     Representation #   6 mode #   6

     Self-consistent Calculation

      iter #   1 total cpu time :  7149.5 secs   av.it.:   3.0
      thresh= 1.000E-02 alpha_mix =  0.700 |ddv_scf|^2 =  1.680E-09

      iter #   2 total cpu time :  7237.7 secs   av.it.:  15.9
      thresh= 4.099E-06 alpha_mix =  0.700 |ddv_scf|^2 =  4.575E-10

      iter #   3 total cpu time :  7322.8 secs   av.it.:  15.4
      thresh= 2.139E-06 alpha_mix =  0.700 |ddv_scf|^2 =  4.308E-12

      iter #   4 total cpu time :  7407.5 secs   av.it.:  15.6
      thresh= 2.075E-07 alpha_mix =  0.700 |ddv_scf|^2 =  2.133E-13

      iter #   5 total cpu time :  7490.8 secs   av.it.:  15.5
      thresh= 4.619E-08 alpha_mix =  0.700 |ddv_scf|^2 =  4.873E-15

     End of self-consistent calculation

     Convergence has been achieved 


     Representation #   7 mode #   7

     Self-consistent Calculation

      iter #   1 total cpu time :  7550.9 secs   av.it.:   3.0
      thresh= 1.000E-02 alpha_mix =  0.700 |ddv_scf|^2 =  1.371E-09

      iter #   2 total cpu time :  7633.5 secs   av.it.:  15.3
      thresh= 3.703E-06 alpha_mix =  0.700 |ddv_scf|^2 =  1.215E-10

      iter #   3 total cpu time :  7718.7 secs   av.it.:  15.4
      thresh= 1.102E-06 alpha_mix =  0.700 |ddv_scf|^2 =  1.206E-12

      iter #   4 total cpu time :  7804.9 secs   av.it.:  15.9
      thresh= 1.098E-07 alpha_mix =  0.700 |ddv_scf|^2 =  9.400E-14

      iter #   5 total cpu time :  7891.1 secs   av.it.:  15.9
      thresh= 3.066E-08 alpha_mix =  0.700 |ddv_scf|^2 =  5.871E-15

     End of self-consistent calculation

     Convergence has been achieved 


     Representation #   8 mode #   8

     Self-consistent Calculation

      iter #   1 total cpu time :  7951.7 secs   av.it.:   3.0
      thresh= 1.000E-02 alpha_mix =  0.700 |ddv_scf|^2 =  8.441E-10

      iter #   2 total cpu time :  8037.7 secs   av.it.:  15.6
      thresh= 2.905E-06 alpha_mix =  0.700 |ddv_scf|^2 =  6.914E-11

      iter #   3 total cpu time :  8125.5 secs   av.it.:  15.8
      thresh= 8.315E-07 alpha_mix =  0.700 |ddv_scf|^2 =  2.094E-12

      iter #   4 total cpu time :  8211.6 secs   av.it.:  15.9
      thresh= 1.447E-07 alpha_mix =  0.700 |ddv_scf|^2 =  1.728E-13

      iter #   5 total cpu time :  8294.3 secs   av.it.:  15.7
      thresh= 4.157E-08 alpha_mix =  0.700 |ddv_scf|^2 =  5.747E-15

     End of self-consistent calculation

     Convergence has been achieved 


     Representation #   9 mode #   9

     Self-consistent Calculation

      iter #   1 total cpu time :  8362.4 secs   av.it.:   4.7
      thresh= 1.000E-02 alpha_mix =  0.700 |ddv_scf|^2 =  7.841E-09

      iter #   2 total cpu time :  8448.8 secs   av.it.:  16.0
      thresh= 8.855E-06 alpha_mix =  0.700 |ddv_scf|^2 =  1.159E-09

      iter #   3 total cpu time :  8531.4 secs   av.it.:  15.5
      thresh= 3.405E-06 alpha_mix =  0.700 |ddv_scf|^2 =  2.171E-11

      iter #   4 total cpu time :  8614.7 secs   av.it.:  15.8
      thresh= 4.660E-07 alpha_mix =  0.700 |ddv_scf|^2 =  1.590E-12

      iter #   5 total cpu time :  8698.0 secs   av.it.:  15.7
      thresh= 1.261E-07 alpha_mix =  0.700 |ddv_scf|^2 =  2.916E-14

      iter #   6 total cpu time :  8781.6 secs   av.it.:  15.9
      thresh= 1.708E-08 alpha_mix =  0.700 |ddv_scf|^2 =  2.233E-16

     End of self-consistent calculation

     Convergence has been achieved 


     Representation #  10 mode #  10

     Self-consistent Calculation

      iter #   1 total cpu time :  8858.9 secs   av.it.:   3.0
      thresh= 1.000E-02 alpha_mix =  0.700 |ddv_scf|^2 =  1.070E-09

      iter #   2 total cpu time :  8943.1 secs   av.it.:  15.9
      thresh= 3.270E-06 alpha_mix =  0.700 |ddv_scf|^2 =  1.095E-10

      iter #   3 total cpu time :  9027.6 secs   av.it.:  15.9
      thresh= 1.046E-06 alpha_mix =  0.700 |ddv_scf|^2 =  4.080E-12

      iter #   4 total cpu time :  9111.6 secs   av.it.:  15.9
      thresh= 2.020E-07 alpha_mix =  0.700 |ddv_scf|^2 =  1.728E-13

      iter #   5 total cpu time :  9195.2 secs   av.it.:  15.8
      thresh= 4.157E-08 alpha_mix =  0.700 |ddv_scf|^2 =  6.391E-15

     End of self-consistent calculation

     Convergence has been achieved 


     Representation #  11 mode #  11

     Self-consistent Calculation

      iter #   1 total cpu time :  9257.1 secs   av.it.:   3.0
      thresh= 1.000E-02 alpha_mix =  0.700 |ddv_scf|^2 =  8.636E-10

      iter #   2 total cpu time :  9344.8 secs   av.it.:  15.9
      thresh= 2.939E-06 alpha_mix =  0.700 |ddv_scf|^2 =  1.556E-10

      iter #   3 total cpu time :  9430.5 secs   av.it.:  15.6
      thresh= 1.247E-06 alpha_mix =  0.700 |ddv_scf|^2 =  6.403E-12

      iter #   4 total cpu time :  9517.3 secs   av.it.:  15.8
      thresh= 2.530E-07 alpha_mix =  0.700 |ddv_scf|^2 =  1.040E-13

      iter #   5 total cpu time :  9603.9 secs   av.it.:  15.4
      thresh= 3.225E-08 alpha_mix =  0.700 |ddv_scf|^2 =  4.259E-15

     End of self-consistent calculation

     Convergence has been achieved 


     Representation #  12 mode #  12

     Self-consistent Calculation

      iter #   1 total cpu time :  9665.8 secs   av.it.:   3.0
      thresh= 1.000E-02 alpha_mix =  0.700 |ddv_scf|^2 =  7.935E-10

      iter #   2 total cpu time :  9753.9 secs   av.it.:  15.9
      thresh= 2.817E-06 alpha_mix =  0.700 |ddv_scf|^2 =  1.172E-10

      iter #   3 total cpu time :  9840.5 secs   av.it.:  15.9
      thresh= 1.083E-06 alpha_mix =  0.700 |ddv_scf|^2 =  4.319E-12

      iter #   4 total cpu time :  9928.0 secs   av.it.:  15.9
      thresh= 2.078E-07 alpha_mix =  0.700 |ddv_scf|^2 =  2.769E-13

      iter #   5 total cpu time : 10014.6 secs   av.it.:  15.4
      thresh= 5.263E-08 alpha_mix =  0.700 |ddv_scf|^2 =  5.559E-15

     End of self-consistent calculation

     Convergence has been achieved 


     Representation #  13 mode #  13

     Self-consistent Calculation

      iter #   1 total cpu time : 10077.8 secs   av.it.:   3.5
      thresh= 1.000E-02 alpha_mix =  0.700 |ddv_scf|^2 =  1.766E-09

      iter #   2 total cpu time : 10164.7 secs   av.it.:  15.9
      thresh= 4.202E-06 alpha_mix =  0.700 |ddv_scf|^2 =  5.642E-10

      iter #   3 total cpu time : 10248.8 secs   av.it.:  15.0
      thresh= 2.375E-06 alpha_mix =  0.700 |ddv_scf|^2 =  1.746E-12

      iter #   4 total cpu time : 10333.2 secs   av.it.:  15.7
      thresh= 1.321E-07 alpha_mix =  0.700 |ddv_scf|^2 =  5.625E-14

      iter #   5 total cpu time : 10420.9 secs   av.it.:  15.8
      thresh= 2.372E-08 alpha_mix =  0.700 |ddv_scf|^2 =  2.669E-15

     End of self-consistent calculation

     Convergence has been achieved 


     Representation #  14 mode #  14

     Self-consistent Calculation

      iter #   1 total cpu time : 10489.1 secs   av.it.:   4.1
      thresh= 1.000E-02 alpha_mix =  0.700 |ddv_scf|^2 =  9.959E-09

      iter #   2 total cpu time : 10575.7 secs   av.it.:  15.4
      thresh= 9.980E-06 alpha_mix =  0.700 |ddv_scf|^2 =  1.275E-09

      iter #   3 total cpu time : 10661.6 secs   av.it.:  15.0
      thresh= 3.570E-06 alpha_mix =  0.700 |ddv_scf|^2 =  1.087E-11

      iter #   4 total cpu time : 10749.3 secs   av.it.:  15.8
      thresh= 3.298E-07 alpha_mix =  0.700 |ddv_scf|^2 =  1.555E-12

      iter #   5 total cpu time : 10836.7 secs   av.it.:  15.6
      thresh= 1.247E-07 alpha_mix =  0.700 |ddv_scf|^2 =  7.286E-14

      iter #   6 total cpu time : 10922.9 secs   av.it.:  15.4
      thresh= 2.699E-08 alpha_mix =  0.700 |ddv_scf|^2 =  1.764E-16

     End of self-consistent calculation

     Convergence has been achieved 


     Representation #  15 mode #  15

     Self-consistent Calculation

      iter #   1 total cpu time : 11002.5 secs   av.it.:   3.0
      thresh= 1.000E-02 alpha_mix =  0.700 |ddv_scf|^2 =  1.575E-09

      iter #   2 total cpu time : 11091.4 secs   av.it.:  15.9
      thresh= 3.969E-06 alpha_mix =  0.700 |ddv_scf|^2 =  2.995E-10

      iter #   3 total cpu time : 11179.0 secs   av.it.:  15.6
      thresh= 1.731E-06 alpha_mix =  0.700 |ddv_scf|^2 =  3.564E-12

      iter #   4 total cpu time : 11268.0 secs   av.it.:  15.9
      thresh= 1.888E-07 alpha_mix =  0.700 |ddv_scf|^2 =  1.344E-13

      iter #   5 total cpu time : 11355.1 secs   av.it.:  15.9
      thresh= 3.666E-08 alpha_mix =  0.700 |ddv_scf|^2 =  5.059E-15

     End of self-consistent calculation

     Convergence has been achieved 


     Representation #  16 mode #  16

     Self-consistent Calculation

      iter #   1 total cpu time : 11417.6 secs   av.it.:   3.0
      thresh= 1.000E-02 alpha_mix =  0.700 |ddv_scf|^2 =  1.650E-09

      iter #   2 total cpu time : 11504.2 secs   av.it.:  15.9
      thresh= 4.062E-06 alpha_mix =  0.700 |ddv_scf|^2 =  5.369E-10

      iter #   3 total cpu time : 11588.0 secs   av.it.:  15.1
      thresh= 2.317E-06 alpha_mix =  0.700 |ddv_scf|^2 =  1.738E-12

      iter #   4 total cpu time : 11676.2 secs   av.it.:  15.9
      thresh= 1.318E-07 alpha_mix =  0.700 |ddv_scf|^2 =  4.568E-14

      iter #   5 total cpu time : 11763.7 secs   av.it.:  15.7
      thresh= 2.137E-08 alpha_mix =  0.700 |ddv_scf|^2 =  2.965E-15

     End of self-consistent calculation

     Convergence has been achieved 


     Representation #  17 mode #  17

     Self-consistent Calculation

      iter #   1 total cpu time : 11832.6 secs   av.it.:   4.9
      thresh= 1.000E-02 alpha_mix =  0.700 |ddv_scf|^2 =  1.362E-08

      iter #   2 total cpu time : 11919.7 secs   av.it.:  15.9
      thresh= 1.167E-05 alpha_mix =  0.700 |ddv_scf|^2 =  5.633E-09

      iter #   3 total cpu time : 12002.3 secs   av.it.:  14.9
      thresh= 7.506E-06 alpha_mix =  0.700 |ddv_scf|^2 =  1.004E-10

      iter #   4 total cpu time : 12088.0 secs   av.it.:  15.1
      thresh= 1.002E-06 alpha_mix =  0.700 |ddv_scf|^2 =  6.632E-12

      iter #   5 total cpu time : 12174.3 secs   av.it.:  15.2
      thresh= 2.575E-07 alpha_mix =  0.700 |ddv_scf|^2 =  5.170E-13

      iter #   6 total cpu time : 12260.2 secs   av.it.:  15.0
      thresh= 7.191E-08 alpha_mix =  0.700 |ddv_scf|^2 =  1.605E-14

      iter #   7 total cpu time : 12348.8 secs   av.it.:  15.9
      thresh= 1.267E-08 alpha_mix =  0.700 |ddv_scf|^2 =  3.082E-15

     End of self-consistent calculation

     Convergence has been achieved 


     Representation #  18 mode #  18

     Self-consistent Calculation

      iter #   1 total cpu time : 12429.2 secs   av.it.:   3.1
      thresh= 1.000E-02 alpha_mix =  0.700 |ddv_scf|^2 =  3.805E-09

      iter #   2 total cpu time : 12514.7 secs   av.it.:  15.6
      thresh= 6.168E-06 alpha_mix =  0.700 |ddv_scf|^2 =  2.223E-09

      iter #   3 total cpu time : 12595.5 secs   av.it.:  14.8
      thresh= 4.715E-06 alpha_mix =  0.700 |ddv_scf|^2 =  4.450E-12

      iter #   4 total cpu time : 12679.8 secs   av.it.:  15.9
      thresh= 2.110E-07 alpha_mix =  0.700 |ddv_scf|^2 =  9.092E-13

      iter #   5 total cpu time : 12761.2 secs   av.it.:  14.9
      thresh= 9.535E-08 alpha_mix =  0.700 |ddv_scf|^2 =  7.301E-14

      iter #   6 total cpu time : 12843.8 secs   av.it.:  15.0
      thresh= 2.702E-08 alpha_mix =  0.700 |ddv_scf|^2 =  3.328E-15

     End of self-consistent calculation

     Convergence has been achieved 


     Representation #  19 mode #  19

     Self-consistent Calculation

      iter #   1 total cpu time : 12904.5 secs   av.it.:   3.0
      thresh= 1.000E-02 alpha_mix =  0.700 |ddv_scf|^2 =  1.003E-09

      iter #   2 total cpu time : 12988.9 secs   av.it.:  15.9
      thresh= 3.166E-06 alpha_mix =  0.700 |ddv_scf|^2 =  2.172E-10

      iter #   3 total cpu time : 13071.5 secs   av.it.:  15.7
      thresh= 1.474E-06 alpha_mix =  0.700 |ddv_scf|^2 =  1.175E-11

      iter #   4 total cpu time : 13153.2 secs   av.it.:  15.0
      thresh= 3.428E-07 alpha_mix =  0.700 |ddv_scf|^2 =  5.772E-13

      iter #   5 total cpu time : 13236.6 secs   av.it.:  15.6
      thresh= 7.597E-08 alpha_mix =  0.700 |ddv_scf|^2 =  1.104E-14

      iter #   6 total cpu time : 13322.4 secs   av.it.:  15.9
      thresh= 1.051E-08 alpha_mix =  0.700 |ddv_scf|^2 =  1.805E-15

     End of self-consistent calculation

     Convergence has been achieved 


     Representation #  20 mode #  20

     Self-consistent Calculation

      iter #   1 total cpu time : 13385.9 secs   av.it.:   3.9
      thresh= 1.000E-02 alpha_mix =  0.700 |ddv_scf|^2 =  6.497E-09

      iter #   2 total cpu time : 13468.7 secs   av.it.:  15.3
      thresh= 8.060E-06 alpha_mix =  0.700 |ddv_scf|^2 =  4.117E-09

      iter #   3 total cpu time : 13549.3 secs   av.it.:  14.6
      thresh= 6.416E-06 alpha_mix =  0.700 |ddv_scf|^2 =  1.279E-11

      iter #   4 total cpu time : 13632.0 secs   av.it.:  14.9
      thresh= 3.577E-07 alpha_mix =  0.700 |ddv_scf|^2 =  1.049E-12

      iter #   5 total cpu time : 13717.0 secs   av.it.:  15.2
      thresh= 1.024E-07 alpha_mix =  0.700 |ddv_scf|^2 =  9.573E-14

      iter #   6 total cpu time : 13798.0 secs   av.it.:  14.9
      thresh= 3.094E-08 alpha_mix =  0.700 |ddv_scf|^2 =  7.171E-15

     End of self-consistent calculation

     Convergence has been achieved 


     Representation #  21 mode #  21

     Self-consistent Calculation

      iter #   1 total cpu time : 13860.6 secs   av.it.:   3.0
      thresh= 1.000E-02 alpha_mix =  0.700 |ddv_scf|^2 =  6.514E-09

      iter #   2 total cpu time : 13945.0 secs   av.it.:  15.4
      thresh= 8.071E-06 alpha_mix =  0.700 |ddv_scf|^2 =  4.446E-09

      iter #   3 total cpu time : 14025.9 secs   av.it.:  14.8
      thresh= 6.668E-06 alpha_mix =  0.700 |ddv_scf|^2 =  5.082E-12

      iter #   4 total cpu time : 14112.3 secs   av.it.:  15.9
      thresh= 2.254E-07 alpha_mix =  0.700 |ddv_scf|^2 =  1.021E-12

      iter #   5 total cpu time : 14197.4 secs   av.it.:  15.4
      thresh= 1.010E-07 alpha_mix =  0.700 |ddv_scf|^2 =  7.722E-14

      iter #   6 total cpu time : 14282.1 secs   av.it.:  15.2
      thresh= 2.779E-08 alpha_mix =  0.700 |ddv_scf|^2 =  2.914E-15

     End of self-consistent calculation

     Convergence has been achieved 


     Representation #  22 mode #  22

     Self-consistent Calculation

      iter #   1 total cpu time : 14358.6 secs   av.it.:   6.5
      thresh= 1.000E-02 alpha_mix =  0.700 |ddv_scf|^2 =  3.924E-08

      iter #   2 total cpu time : 14444.5 secs   av.it.:  15.3
      thresh= 1.981E-05 alpha_mix =  0.700 |ddv_scf|^2 =  6.222E-09

      iter #   3 total cpu time : 14525.6 secs   av.it.:  15.0
      thresh= 7.888E-06 alpha_mix =  0.700 |ddv_scf|^2 =  3.022E-11

      iter #   4 total cpu time : 14605.2 secs   av.it.:  14.9
      thresh= 5.497E-07 alpha_mix =  0.700 |ddv_scf|^2 =  2.199E-13

      iter #   5 total cpu time : 14688.0 secs   av.it.:  15.4
      thresh= 4.689E-08 alpha_mix =  0.700 |ddv_scf|^2 =  8.019E-15

     End of self-consistent calculation

     Convergence has been achieved 


     Representation #  23 mode #  23

     Self-consistent Calculation

      iter #   1 total cpu time : 14754.9 secs   av.it.:   3.0
      thresh= 1.000E-02 alpha_mix =  0.700 |ddv_scf|^2 =  4.360E-09

      iter #   2 total cpu time : 14838.2 secs   av.it.:  15.0
      thresh= 6.603E-06 alpha_mix =  0.700 |ddv_scf|^2 =  2.231E-09

      iter #   3 total cpu time : 14919.5 secs   av.it.:  14.6
      thresh= 4.723E-06 alpha_mix =  0.700 |ddv_scf|^2 =  1.771E-11

      iter #   4 total cpu time : 15004.7 secs   av.it.:  15.0
      thresh= 4.209E-07 alpha_mix =  0.700 |ddv_scf|^2 =  1.459E-12

      iter #   5 total cpu time : 15089.3 secs   av.it.:  14.9
      thresh= 1.208E-07 alpha_mix =  0.700 |ddv_scf|^2 =  2.706E-14

      iter #   6 total cpu time : 15177.4 secs   av.it.:  15.8
      thresh= 1.645E-08 alpha_mix =  0.700 |ddv_scf|^2 =  4.588E-15

     End of self-consistent calculation

     Convergence has been achieved 


     Representation #  24 mode #  24

     Self-consistent Calculation

      iter #   1 total cpu time : 15238.9 secs   av.it.:   3.0
      thresh= 1.000E-02 alpha_mix =  0.700 |ddv_scf|^2 =  7.041E-10

      iter #   2 total cpu time : 15326.5 secs   av.it.:  15.7
      thresh= 2.654E-06 alpha_mix =  0.700 |ddv_scf|^2 =  9.693E-11

      iter #   3 total cpu time : 15413.4 secs   av.it.:  15.6
      thresh= 9.845E-07 alpha_mix =  0.700 |ddv_scf|^2 =  9.906E-12

      iter #   4 total cpu time : 15497.5 secs   av.it.:  14.9
      thresh= 3.147E-07 alpha_mix =  0.700 |ddv_scf|^2 =  7.051E-13

      iter #   5 total cpu time : 15582.6 secs   av.it.:  15.0
      thresh= 8.397E-08 alpha_mix =  0.700 |ddv_scf|^2 =  1.236E-14

      iter #   6 total cpu time : 15669.3 secs   av.it.:  15.2
      thresh= 1.112E-08 alpha_mix =  0.700 |ddv_scf|^2 =  1.355E-15

     End of self-consistent calculation

     Convergence has been achieved 


     Representation #  25 mode #  25

     Self-consistent Calculation

      iter #   1 total cpu time : 15732.7 secs   av.it.:   3.1
      thresh= 1.000E-02 alpha_mix =  0.700 |ddv_scf|^2 =  5.233E-09

      iter #   2 total cpu time : 15820.9 secs   av.it.:  15.7
      thresh= 7.234E-06 alpha_mix =  0.700 |ddv_scf|^2 =  2.937E-09

      iter #   3 total cpu time : 15905.4 secs   av.it.:  14.9
      thresh= 5.419E-06 alpha_mix =  0.700 |ddv_scf|^2 =  1.928E-11

      iter #   4 total cpu time : 15991.6 secs   av.it.:  15.0
      thresh= 4.391E-07 alpha_mix =  0.700 |ddv_scf|^2 =  1.260E-12

      iter #   5 total cpu time : 16079.1 secs   av.it.:  15.3
      thresh= 1.122E-07 alpha_mix =  0.700 |ddv_scf|^2 =  6.107E-14

      iter #   6 total cpu time : 16166.0 secs   av.it.:  15.2
      thresh= 2.471E-08 alpha_mix =  0.700 |ddv_scf|^2 =  7.936E-15

     End of self-consistent calculation

     Convergence has been achieved 


     Representation #  26 mode #  26

     Self-consistent Calculation

      iter #   1 total cpu time : 16228.3 secs   av.it.:   3.0
      thresh= 1.000E-02 alpha_mix =  0.700 |ddv_scf|^2 =  4.208E-09

      iter #   2 total cpu time : 16311.5 secs   av.it.:  15.0
      thresh= 6.487E-06 alpha_mix =  0.700 |ddv_scf|^2 =  1.398E-09

      iter #   3 total cpu time : 16390.6 secs   av.it.:  14.7
      thresh= 3.739E-06 alpha_mix =  0.700 |ddv_scf|^2 =  1.208E-11

      iter #   4 total cpu time : 16472.9 secs   av.it.:  15.0
      thresh= 3.475E-07 alpha_mix =  0.700 |ddv_scf|^2 =  1.917E-12

      iter #   5 total cpu time : 16557.4 secs   av.it.:  14.9
      thresh= 1.384E-07 alpha_mix =  0.700 |ddv_scf|^2 =  1.893E-14

      iter #   6 total cpu time : 16642.8 secs   av.it.:  15.3
      thresh= 1.376E-08 alpha_mix =  0.700 |ddv_scf|^2 =  4.011E-15

     End of self-consistent calculation

     Convergence has been achieved 


     Representation #  27 mode #  27

     Self-consistent Calculation

      iter #   1 total cpu time : 16712.0 secs   av.it.:   5.0
      thresh= 1.000E-02 alpha_mix =  0.700 |ddv_scf|^2 =  5.012E-08

      iter #   2 total cpu time : 16793.8 secs   av.it.:  14.9
      thresh= 2.239E-05 alpha_mix =  0.700 |ddv_scf|^2 =  3.094E-08

      iter #   3 total cpu time : 16871.8 secs   av.it.:  14.1
      thresh= 1.759E-05 alpha_mix =  0.700 |ddv_scf|^2 =  1.619E-10

      iter #   4 total cpu time : 16953.8 secs   av.it.:  15.0
      thresh= 1.272E-06 alpha_mix =  0.700 |ddv_scf|^2 =  6.079E-12

      iter #   5 total cpu time : 17037.0 secs   av.it.:  15.0
      thresh= 2.466E-07 alpha_mix =  0.700 |ddv_scf|^2 =  1.283E-13

      iter #   6 total cpu time : 17124.9 secs   av.it.:  15.7
      thresh= 3.582E-08 alpha_mix =  0.700 |ddv_scf|^2 =  1.411E-14

      iter #   7 total cpu time : 17211.3 secs   av.it.:  15.2
      thresh= 1.188E-08 alpha_mix =  0.700 |ddv_scf|^2 =  8.732E-16

     End of self-consistent calculation

     Convergence has been achieved 


     Representation #  28 mode #  28

     Self-consistent Calculation

      iter #   1 total cpu time : 17291.4 secs   av.it.:   3.0
      thresh= 1.000E-02 alpha_mix =  0.700 |ddv_scf|^2 =  8.587E-09

      iter #   2 total cpu time : 17376.1 secs   av.it.:  15.0
      thresh= 9.267E-06 alpha_mix =  0.700 |ddv_scf|^2 =  6.361E-09

      iter #   3 total cpu time : 17455.5 secs   av.it.:  14.0
      thresh= 7.975E-06 alpha_mix =  0.700 |ddv_scf|^2 =  4.204E-12

      iter #   4 total cpu time : 17541.4 secs   av.it.:  15.6
      thresh= 2.050E-07 alpha_mix =  0.700 |ddv_scf|^2 =  9.742E-13

      iter #   5 total cpu time : 17622.3 secs   av.it.:  14.9
      thresh= 9.870E-08 alpha_mix =  0.700 |ddv_scf|^2 =  1.114E-14

      iter #   6 total cpu time : 17706.4 secs   av.it.:  15.1
      thresh= 1.056E-08 alpha_mix =  0.700 |ddv_scf|^2 =  8.534E-16

     End of self-consistent calculation

     Convergence has been achieved 


     Representation #  29 mode #  29

     Self-consistent Calculation

      iter #   1 total cpu time : 17769.6 secs   av.it.:   3.9
      thresh= 1.000E-02 alpha_mix =  0.700 |ddv_scf|^2 =  4.569E-09

      iter #   2 total cpu time : 17851.8 secs   av.it.:  15.8
      thresh= 6.759E-06 alpha_mix =  0.700 |ddv_scf|^2 =  2.850E-09

      iter #   3 total cpu time : 17931.5 secs   av.it.:  14.9
      thresh= 5.339E-06 alpha_mix =  0.700 |ddv_scf|^2 =  3.126E-12

      iter #   4 total cpu time : 18016.9 secs   av.it.:  15.7
      thresh= 1.768E-07 alpha_mix =  0.700 |ddv_scf|^2 =  9.319E-13

      iter #   5 total cpu time : 18099.7 secs   av.it.:  15.0
      thresh= 9.653E-08 alpha_mix =  0.700 |ddv_scf|^2 =  4.654E-14

      iter #   6 total cpu time : 18183.1 secs   av.it.:  15.0
      thresh= 2.157E-08 alpha_mix =  0.700 |ddv_scf|^2 =  4.316E-15

     End of self-consistent calculation

     Convergence has been achieved 


     Representation #  30 mode #  30

     Self-consistent Calculation

      iter #   1 total cpu time : 18253.1 secs   av.it.:   5.0
      thresh= 1.000E-02 alpha_mix =  0.700 |ddv_scf|^2 =  5.002E-08

      iter #   2 total cpu time : 18338.4 secs   av.it.:  15.0
      thresh= 2.236E-05 alpha_mix =  0.700 |ddv_scf|^2 =  3.738E-08

      iter #   3 total cpu time : 18419.9 secs   av.it.:  14.1
      thresh= 1.933E-05 alpha_mix =  0.700 |ddv_scf|^2 =  7.113E-11

      iter #   4 total cpu time : 18505.6 secs   av.it.:  15.2
      thresh= 8.434E-07 alpha_mix =  0.700 |ddv_scf|^2 =  7.093E-12

      iter #   5 total cpu time : 18592.2 secs   av.it.:  15.0
      thresh= 2.663E-07 alpha_mix =  0.700 |ddv_scf|^2 =  3.437E-13

      iter #   6 total cpu time : 18679.7 secs   av.it.:  15.7
      thresh= 5.862E-08 alpha_mix =  0.700 |ddv_scf|^2 =  2.675E-14

      iter #   7 total cpu time : 18766.9 secs   av.it.:  15.5
      thresh= 1.636E-08 alpha_mix =  0.700 |ddv_scf|^2 =  2.229E-15

     End of self-consistent calculation

     Convergence has been achieved 


     Representation #  31 mode #  31

     Self-consistent Calculation

      iter #   1 total cpu time : 18846.7 secs   av.it.:   3.0
      thresh= 1.000E-02 alpha_mix =  0.700 |ddv_scf|^2 =  6.545E-09

      iter #   2 total cpu time : 18931.9 secs   av.it.:  15.0
      thresh= 8.090E-06 alpha_mix =  0.700 |ddv_scf|^2 =  3.463E-09

      iter #   3 total cpu time : 19013.9 secs   av.it.:  14.5
      thresh= 5.885E-06 alpha_mix =  0.700 |ddv_scf|^2 =  1.350E-11

      iter #   4 total cpu time : 19099.2 secs   av.it.:  15.0
      thresh= 3.675E-07 alpha_mix =  0.700 |ddv_scf|^2 =  1.786E-12

      iter #   5 total cpu time : 19181.6 secs   av.it.:  14.7
      thresh= 1.336E-07 alpha_mix =  0.700 |ddv_scf|^2 =  5.459E-14

      iter #   6 total cpu time : 19267.5 secs   av.it.:  15.0
      thresh= 2.337E-08 alpha_mix =  0.700 |ddv_scf|^2 =  8.491E-15

     End of self-consistent calculation

     Convergence has been achieved 


     Representation #  32 mode #  32

     Self-consistent Calculation

      iter #   1 total cpu time : 19331.0 secs   av.it.:   3.5
      thresh= 1.000E-02 alpha_mix =  0.700 |ddv_scf|^2 =  2.675E-09

      iter #   2 total cpu time : 19419.8 secs   av.it.:  15.9
      thresh= 5.172E-06 alpha_mix =  0.700 |ddv_scf|^2 =  1.574E-09

      iter #   3 total cpu time : 19501.4 secs   av.it.:  14.9
      thresh= 3.967E-06 alpha_mix =  0.700 |ddv_scf|^2 =  7.228E-12

      iter #   4 total cpu time : 19583.2 secs   av.it.:  15.0
      thresh= 2.688E-07 alpha_mix =  0.700 |ddv_scf|^2 =  8.975E-13

      iter #   5 total cpu time : 19665.4 secs   av.it.:  15.0
      thresh= 9.474E-08 alpha_mix =  0.700 |ddv_scf|^2 =  7.222E-14

      iter #   6 total cpu time : 19747.0 secs   av.it.:  15.0
      thresh= 2.687E-08 alpha_mix =  0.700 |ddv_scf|^2 =  7.496E-15

     End of self-consistent calculation

     Convergence has been achieved 


     Representation #  33 mode #  33

     Self-consistent Calculation

      iter #   1 total cpu time : 19809.2 secs   av.it.:   3.5
      thresh= 1.000E-02 alpha_mix =  0.700 |ddv_scf|^2 =  4.455E-09

      iter #   2 total cpu time : 19892.6 secs   av.it.:  15.8
      thresh= 6.674E-06 alpha_mix =  0.700 |ddv_scf|^2 =  3.344E-09

      iter #   3 total cpu time : 19972.0 secs   av.it.:  14.9
      thresh= 5.782E-06 alpha_mix =  0.700 |ddv_scf|^2 =  5.814E-12

      iter #   4 total cpu time : 20058.7 secs   av.it.:  15.9
      thresh= 2.411E-07 alpha_mix =  0.700 |ddv_scf|^2 =  4.662E-13

      iter #   5 total cpu time : 20146.2 secs   av.it.:  15.9
      thresh= 6.828E-08 alpha_mix =  0.700 |ddv_scf|^2 =  1.807E-14

      iter #   6 total cpu time : 20232.1 secs   av.it.:  15.8
      thresh= 1.344E-08 alpha_mix =  0.700 |ddv_scf|^2 =  1.064E-15

     End of self-consistent calculation

     Convergence has been achieved 


     Representation #  34 mode #  34

     Self-consistent Calculation

      iter #   1 total cpu time : 20293.4 secs   av.it.:   3.0
      thresh= 1.000E-02 alpha_mix =  0.700 |ddv_scf|^2 =  7.785E-10

      iter #   2 total cpu time : 20380.0 secs   av.it.:  15.7
      thresh= 2.790E-06 alpha_mix =  0.700 |ddv_scf|^2 =  7.251E-11

      iter #   3 total cpu time : 20466.3 secs   av.it.:  15.7
      thresh= 8.515E-07 alpha_mix =  0.700 |ddv_scf|^2 =  5.238E-12

      iter #   4 total cpu time : 20551.5 secs   av.it.:  15.0
      thresh= 2.289E-07 alpha_mix =  0.700 |ddv_scf|^2 =  5.159E-13

      iter #   5 total cpu time : 20635.5 secs   av.it.:  15.0
      thresh= 7.183E-08 alpha_mix =  0.700 |ddv_scf|^2 =  1.834E-14

      iter #   6 total cpu time : 20719.5 secs   av.it.:  15.8
      thresh= 1.354E-08 alpha_mix =  0.700 |ddv_scf|^2 =  8.695E-16

     End of self-consistent calculation

     Convergence has been achieved 


     Representation #  35 mode #  35

     Self-consistent Calculation

      iter #   1 total cpu time : 20780.3 secs   av.it.:   3.0
      thresh= 1.000E-02 alpha_mix =  0.700 |ddv_scf|^2 =  2.888E-09

      iter #   2 total cpu time : 20862.0 secs   av.it.:  15.4
      thresh= 5.374E-06 alpha_mix =  0.700 |ddv_scf|^2 =  1.183E-09

      iter #   3 total cpu time : 20942.0 secs   av.it.:  14.9
      thresh= 3.439E-06 alpha_mix =  0.700 |ddv_scf|^2 =  1.948E-11

      iter #   4 total cpu time : 21023.1 secs   av.it.:  15.0
      thresh= 4.413E-07 alpha_mix =  0.700 |ddv_scf|^2 =  5.747E-13

      iter #   5 total cpu time : 21105.9 secs   av.it.:  15.7
      thresh= 7.581E-08 alpha_mix =  0.700 |ddv_scf|^2 =  3.560E-14

      iter #   6 total cpu time : 21187.4 secs   av.it.:  15.1
      thresh= 1.887E-08 alpha_mix =  0.700 |ddv_scf|^2 =  1.384E-15

     End of self-consistent calculation

     Convergence has been achieved 


     Representation #  36 mode #  36

     Self-consistent Calculation

      iter #   1 total cpu time : 21253.5 secs   av.it.:   4.3
      thresh= 1.000E-02 alpha_mix =  0.700 |ddv_scf|^2 =  5.512E-09

      iter #   2 total cpu time : 21341.6 secs   av.it.:  15.9
      thresh= 7.424E-06 alpha_mix =  0.700 |ddv_scf|^2 =  3.750E-10

      iter #   3 total cpu time : 21431.0 secs   av.it.:  15.9
      thresh= 1.937E-06 alpha_mix =  0.700 |ddv_scf|^2 =  1.436E-11

      iter #   4 total cpu time : 21519.1 secs   av.it.:  15.9
      thresh= 3.789E-07 alpha_mix =  0.700 |ddv_scf|^2 =  3.707E-12

      iter #   5 total cpu time : 21605.4 secs   av.it.:  15.0
      thresh= 1.925E-07 alpha_mix =  0.700 |ddv_scf|^2 =  1.234E-13

      iter #   6 total cpu time : 21693.2 secs   av.it.:  15.6
      thresh= 3.513E-08 alpha_mix =  0.700 |ddv_scf|^2 =  3.738E-15

     End of self-consistent calculation

     Convergence has been achieved 


     Representation #  37 mode #  37

     Self-consistent Calculation

      iter #   1 total cpu time : 21770.8 secs   av.it.:   3.0
      thresh= 1.000E-02 alpha_mix =  0.700 |ddv_scf|^2 =  8.842E-10

      iter #   2 total cpu time : 21856.1 secs   av.it.:  15.9
      thresh= 2.974E-06 alpha_mix =  0.700 |ddv_scf|^2 =  1.532E-10

      iter #   3 total cpu time : 21938.7 secs   av.it.:  15.5
      thresh= 1.238E-06 alpha_mix =  0.700 |ddv_scf|^2 =  1.983E-11

      iter #   4 total cpu time : 22019.6 secs   av.it.:  15.0
      thresh= 4.453E-07 alpha_mix =  0.700 |ddv_scf|^2 =  2.896E-13

      iter #   5 total cpu time : 22103.4 secs   av.it.:  15.4
      thresh= 5.382E-08 alpha_mix =  0.700 |ddv_scf|^2 =  6.478E-15

     End of self-consistent calculation

     Convergence has been achieved 


     Representation #  38 mode #  38

     Self-consistent Calculation

      iter #   1 total cpu time : 22165.6 secs   av.it.:   3.0
      thresh= 1.000E-02 alpha_mix =  0.700 |ddv_scf|^2 =  1.817E-09

      iter #   2 total cpu time : 22251.8 secs   av.it.:  15.7
      thresh= 4.262E-06 alpha_mix =  0.700 |ddv_scf|^2 =  4.133E-10

      iter #   3 total cpu time : 22335.8 secs   av.it.:  15.0
      thresh= 2.033E-06 alpha_mix =  0.700 |ddv_scf|^2 =  1.556E-11

      iter #   4 total cpu time : 22419.9 secs   av.it.:  15.0
      thresh= 3.945E-07 alpha_mix =  0.700 |ddv_scf|^2 =  9.084E-13

      iter #   5 total cpu time : 22504.9 secs   av.it.:  15.2
      thresh= 9.531E-08 alpha_mix =  0.700 |ddv_scf|^2 =  2.471E-14

      iter #   6 total cpu time : 22589.2 secs   av.it.:  15.5
      thresh= 1.572E-08 alpha_mix =  0.700 |ddv_scf|^2 =  9.976E-16

     End of self-consistent calculation

     Convergence has been achieved 


     Representation #  39 mode #  39

     Self-consistent Calculation

      iter #   1 total cpu time : 22664.0 secs   av.it.:   6.1
      thresh= 1.000E-02 alpha_mix =  0.700 |ddv_scf|^2 =  2.174E-07

      iter #   2 total cpu time : 22745.9 secs   av.it.:  14.9
      thresh= 4.663E-05 alpha_mix =  0.700 |ddv_scf|^2 =  1.104E-07

      iter #   3 total cpu time : 22829.7 secs   av.it.:  14.7
      thresh= 3.323E-05 alpha_mix =  0.700 |ddv_scf|^2 =  5.293E-10

      iter #   4 total cpu time : 22916.7 secs   av.it.:  15.2
      thresh= 2.301E-06 alpha_mix =  0.700 |ddv_scf|^2 =  1.160E-11

      iter #   5 total cpu time : 23004.8 secs   av.it.:  15.5
      thresh= 3.405E-07 alpha_mix =  0.700 |ddv_scf|^2 =  5.115E-13

      iter #   6 total cpu time : 23089.0 secs   av.it.:  14.8
      thresh= 7.152E-08 alpha_mix =  0.700 |ddv_scf|^2 =  3.576E-14

      iter #   7 total cpu time : 23169.0 secs   av.it.:  14.6
      thresh= 1.891E-08 alpha_mix =  0.700 |ddv_scf|^2 =  4.408E-15

     End of self-consistent calculation

     Convergence has been achieved 


     Representation #  40 mode #  40

     Self-consistent Calculation

      iter #   1 total cpu time : 23241.3 secs   av.it.:   4.6
      thresh= 1.000E-02 alpha_mix =  0.700 |ddv_scf|^2 =  8.454E-09

      iter #   2 total cpu time : 23327.0 secs   av.it.:  15.9
      thresh= 9.194E-06 alpha_mix =  0.700 |ddv_scf|^2 =  1.904E-09

      iter #   3 total cpu time : 23409.1 secs   av.it.:  15.2
      thresh= 4.364E-06 alpha_mix =  0.700 |ddv_scf|^2 =  5.426E-11

      iter #   4 total cpu time : 23494.4 secs   av.it.:  15.0
      thresh= 7.366E-07 alpha_mix =  0.700 |ddv_scf|^2 =  5.995E-12

      iter #   5 total cpu time : 23580.4 secs   av.it.:  15.1
      thresh= 2.448E-07 alpha_mix =  0.700 |ddv_scf|^2 =  3.487E-13

      iter #   6 total cpu time : 23667.6 secs   av.it.:  15.6
      thresh= 5.905E-08 alpha_mix =  0.700 |ddv_scf|^2 =  1.158E-15

     End of self-consistent calculation

     Convergence has been achieved 


     Representation #  41 mode #  41

     Self-consistent Calculation

      iter #   1 total cpu time : 23749.8 secs   av.it.:   3.9
      thresh= 1.000E-02 alpha_mix =  0.700 |ddv_scf|^2 =  6.117E-09

      iter #   2 total cpu time : 23836.3 secs   av.it.:  15.4
      thresh= 7.821E-06 alpha_mix =  0.700 |ddv_scf|^2 =  4.137E-09

      iter #   3 total cpu time : 23919.1 secs   av.it.:  14.8
      thresh= 6.432E-06 alpha_mix =  0.700 |ddv_scf|^2 =  4.603E-12

      iter #   4 total cpu time : 24006.6 secs   av.it.:  15.9
      thresh= 2.145E-07 alpha_mix =  0.700 |ddv_scf|^2 =  7.410E-13

      iter #   5 total cpu time : 24092.6 secs   av.it.:  15.3
      thresh= 8.608E-08 alpha_mix =  0.700 |ddv_scf|^2 =  5.047E-14

      iter #   6 total cpu time : 24177.8 secs   av.it.:  14.9
      thresh= 2.247E-08 alpha_mix =  0.700 |ddv_scf|^2 =  7.024E-16

     End of self-consistent calculation

     Convergence has been achieved 


     Representation #  42 mode #  42

     Self-consistent Calculation

      iter #   1 total cpu time : 24238.7 secs   av.it.:   3.0
      thresh= 1.000E-02 alpha_mix =  0.700 |ddv_scf|^2 =  3.700E-10

      iter #   2 total cpu time : 24326.1 secs   av.it.:  15.7
      thresh= 1.924E-06 alpha_mix =  0.700 |ddv_scf|^2 =  3.604E-11

      iter #   3 total cpu time : 24413.5 secs   av.it.:  15.7
      thresh= 6.003E-07 alpha_mix =  0.700 |ddv_scf|^2 =  1.755E-11

      iter #   4 total cpu time : 24496.4 secs   av.it.:  14.8
      thresh= 4.189E-07 alpha_mix =  0.700 |ddv_scf|^2 =  1.751E-13

      iter #   5 total cpu time : 24582.8 secs   av.it.:  15.6
      thresh= 4.184E-08 alpha_mix =  0.700 |ddv_scf|^2 =  1.128E-14

      iter #   6 total cpu time : 24668.7 secs   av.it.:  15.4
      thresh= 1.062E-08 alpha_mix =  0.700 |ddv_scf|^2 =  4.887E-16

     End of self-consistent calculation

     Convergence has been achieved 


     Representation #  43 mode #  43

     Self-consistent Calculation

      iter #   1 total cpu time : 24737.1 secs   av.it.:   4.3
      thresh= 1.000E-02 alpha_mix =  0.700 |ddv_scf|^2 =  5.634E-09

      iter #   2 total cpu time : 24825.3 secs   av.it.:  15.9
      thresh= 7.506E-06 alpha_mix =  0.700 |ddv_scf|^2 =  4.171E-10

      iter #   3 total cpu time : 24912.2 secs   av.it.:  15.9
      thresh= 2.042E-06 alpha_mix =  0.700 |ddv_scf|^2 =  2.769E-11

      iter #   4 total cpu time : 24996.6 secs   av.it.:  15.1
      thresh= 5.262E-07 alpha_mix =  0.700 |ddv_scf|^2 =  4.482E-12

      iter #   5 total cpu time : 25082.0 secs   av.it.:  15.0
      thresh= 2.117E-07 alpha_mix =  0.700 |ddv_scf|^2 =  1.553E-14

      iter #   6 total cpu time : 25168.3 secs   av.it.:  15.9
      thresh= 1.246E-08 alpha_mix =  0.700 |ddv_scf|^2 =  2.094E-16

     End of self-consistent calculation

     Convergence has been achieved 


     Representation #  44 mode #  44

     Self-consistent Calculation

      iter #   1 total cpu time : 25261.3 secs   av.it.:   6.3
      thresh= 1.000E-02 alpha_mix =  0.700 |ddv_scf|^2 =  7.475E-08

      iter #   2 total cpu time : 25346.5 secs   av.it.:  15.5
      thresh= 2.734E-05 alpha_mix =  0.700 |ddv_scf|^2 =  2.301E-08

      iter #   3 total cpu time : 25429.8 secs   av.it.:  14.9
      thresh= 1.517E-05 alpha_mix =  0.700 |ddv_scf|^2 =  3.188E-10

      iter #   4 total cpu time : 25512.3 secs   av.it.:  14.9
      thresh= 1.785E-06 alpha_mix =  0.700 |ddv_scf|^2 =  1.952E-11

      iter #   5 total cpu time : 25595.7 secs   av.it.:  14.9
      thresh= 4.419E-07 alpha_mix =  0.700 |ddv_scf|^2 =  1.637E-13

      iter #   6 total cpu time : 25680.4 secs   av.it.:  15.6
      thresh= 4.045E-08 alpha_mix =  0.700 |ddv_scf|^2 =  6.525E-15

     End of self-consistent calculation

     Convergence has been achieved 


     Representation #  45 mode #  45

     Self-consistent Calculation

      iter #   1 total cpu time : 25746.9 secs   av.it.:   3.0
      thresh= 1.000E-02 alpha_mix =  0.700 |ddv_scf|^2 =  1.136E-09

      iter #   2 total cpu time : 25833.0 secs   av.it.:  15.9
      thresh= 3.371E-06 alpha_mix =  0.700 |ddv_scf|^2 =  2.758E-10

      iter #   3 total cpu time : 25918.6 secs   av.it.:  15.0
      thresh= 1.661E-06 alpha_mix =  0.700 |ddv_scf|^2 =  1.651E-11

      iter #   4 total cpu time : 26001.9 secs   av.it.:  15.0
      thresh= 4.063E-07 alpha_mix =  0.700 |ddv_scf|^2 =  4.470E-13

      iter #   5 total cpu time : 26086.6 secs   av.it.:  15.5
      thresh= 6.686E-08 alpha_mix =  0.700 |ddv_scf|^2 =  2.187E-14

      iter #   6 total cpu time : 26168.7 secs   av.it.:  15.4
      thresh= 1.479E-08 alpha_mix =  0.700 |ddv_scf|^2 =  1.189E-15

     End of self-consistent calculation

     Convergence has been achieved 


     Representation #  46 mode #  46

     Self-consistent Calculation

      iter #   1 total cpu time : 26230.0 secs   av.it.:   3.0
      thresh= 1.000E-02 alpha_mix =  0.700 |ddv_scf|^2 =  2.565E-09

      iter #   2 total cpu time : 26314.6 secs   av.it.:  15.9
      thresh= 5.065E-06 alpha_mix =  0.700 |ddv_scf|^2 =  1.963E-09

      iter #   3 total cpu time : 26394.8 secs   av.it.:  14.8
      thresh= 4.430E-06 alpha_mix =  0.700 |ddv_scf|^2 =  5.279E-12

      iter #   4 total cpu time : 26481.5 secs   av.it.:  15.9
      thresh= 2.298E-07 alpha_mix =  0.700 |ddv_scf|^2 =  5.273E-13

      iter #   5 total cpu time : 26568.0 secs   av.it.:  15.9
      thresh= 7.262E-08 alpha_mix =  0.700 |ddv_scf|^2 =  8.203E-15

     End of self-consistent calculation

     Convergence has been achieved 


     Representation #  47 mode #  47

     Self-consistent Calculation

      iter #   1 total cpu time : 26631.1 secs   av.it.:   3.8
      thresh= 1.000E-02 alpha_mix =  0.700 |ddv_scf|^2 =  2.864E-09

      iter #   2 total cpu time : 26716.0 secs   av.it.:  15.9
      thresh= 5.351E-06 alpha_mix =  0.700 |ddv_scf|^2 =  2.251E-09

      iter #   3 total cpu time : 26796.7 secs   av.it.:  14.9
      thresh= 4.744E-06 alpha_mix =  0.700 |ddv_scf|^2 =  6.494E-12

      iter #   4 total cpu time : 26881.7 secs   av.it.:  15.9
      thresh= 2.548E-07 alpha_mix =  0.700 |ddv_scf|^2 =  5.223E-13

      iter #   5 total cpu time : 26969.3 secs   av.it.:  15.8
      thresh= 7.227E-08 alpha_mix =  0.700 |ddv_scf|^2 =  1.043E-14

      iter #   6 total cpu time : 27057.1 secs   av.it.:  15.9
      thresh= 1.021E-08 alpha_mix =  0.700 |ddv_scf|^2 =  8.947E-16

     End of self-consistent calculation

     Convergence has been achieved 


     Representation #  48 mode #  48

     Self-consistent Calculation

      iter #   1 total cpu time : 27118.6 secs   av.it.:   3.0
      thresh= 1.000E-02 alpha_mix =  0.700 |ddv_scf|^2 =  3.852E-10

      iter #   2 total cpu time : 27207.3 secs   av.it.:  15.9
      thresh= 1.963E-06 alpha_mix =  0.700 |ddv_scf|^2 =  1.992E-11

      iter #   3 total cpu time : 27296.8 secs   av.it.:  15.9
      thresh= 4.463E-07 alpha_mix =  0.700 |ddv_scf|^2 =  3.662E-12

      iter #   4 total cpu time : 27383.7 secs   av.it.:  15.5
      thresh= 1.914E-07 alpha_mix =  0.700 |ddv_scf|^2 =  3.545E-13

      iter #   5 total cpu time : 27468.7 secs   av.it.:  15.0
      thresh= 5.954E-08 alpha_mix =  0.700 |ddv_scf|^2 =  1.976E-14

      iter #   6 total cpu time : 27553.6 secs   av.it.:  15.0
      thresh= 1.406E-08 alpha_mix =  0.700 |ddv_scf|^2 =  5.376E-16

     End of self-consistent calculation

     Convergence has been achieved 


     Representation #  49 mode #  49

     Self-consistent Calculation

      iter #   1 total cpu time : 27615.9 secs   av.it.:   3.0
      thresh= 1.000E-02 alpha_mix =  0.700 |ddv_scf|^2 =  1.213E-09

      iter #   2 total cpu time : 27704.9 secs   av.it.:  15.9
      thresh= 3.483E-06 alpha_mix =  0.700 |ddv_scf|^2 =  6.620E-10

      iter #   3 total cpu time : 27789.4 secs   av.it.:  14.9
      thresh= 2.573E-06 alpha_mix =  0.700 |ddv_scf|^2 =  7.863E-12

      iter #   4 total cpu time : 27876.3 secs   av.it.:  15.2
      thresh= 2.804E-07 alpha_mix =  0.700 |ddv_scf|^2 =  5.036E-13

      iter #   5 total cpu time : 27964.9 secs   av.it.:  15.9
      thresh= 7.097E-08 alpha_mix =  0.700 |ddv_scf|^2 =  1.646E-14

      iter #   6 total cpu time : 28053.0 secs   av.it.:  15.8
      thresh= 1.283E-08 alpha_mix =  0.700 |ddv_scf|^2 =  7.268E-16

     End of self-consistent calculation

     Convergence has been achieved 


     Representation #  50 mode #  50

     Self-consistent Calculation

      iter #   1 total cpu time : 28121.2 secs   av.it.:   4.7
      thresh= 1.000E-02 alpha_mix =  0.700 |ddv_scf|^2 =  9.959E-09

      iter #   2 total cpu time : 28207.5 secs   av.it.:  15.9
      thresh= 9.979E-06 alpha_mix =  0.700 |ddv_scf|^2 =  4.023E-09

      iter #   3 total cpu time : 28289.6 secs   av.it.:  14.9
      thresh= 6.342E-06 alpha_mix =  0.700 |ddv_scf|^2 =  1.278E-10

      iter #   4 total cpu time : 28373.3 secs   av.it.:  15.0
      thresh= 1.131E-06 alpha_mix =  0.700 |ddv_scf|^2 =  2.690E-12

      iter #   5 total cpu time : 28458.5 secs   av.it.:  15.6
      thresh= 1.640E-07 alpha_mix =  0.700 |ddv_scf|^2 =  4.464E-13

      iter #   6 total cpu time : 28542.4 secs   av.it.:  15.1
      thresh= 6.681E-08 alpha_mix =  0.700 |ddv_scf|^2 =  1.744E-15

     End of self-consistent calculation

     Convergence has been achieved 


     Representation #  51 mode #  51

     Self-consistent Calculation

      iter #   1 total cpu time : 28623.2 secs   av.it.:   3.0
      thresh= 1.000E-02 alpha_mix =  0.700 |ddv_scf|^2 =  3.045E-09

      iter #   2 total cpu time : 28710.9 secs   av.it.:  15.9
      thresh= 5.518E-06 alpha_mix =  0.700 |ddv_scf|^2 =  2.371E-09

      iter #   3 total cpu time : 28793.8 secs   av.it.:  14.9
      thresh= 4.870E-06 alpha_mix =  0.700 |ddv_scf|^2 =  5.037E-12

      iter #   4 total cpu time : 28882.6 secs   av.it.:  15.9
      thresh= 2.244E-07 alpha_mix =  0.700 |ddv_scf|^2 =  1.015E-12

      iter #   5 total cpu time : 28969.2 secs   av.it.:  15.7
      thresh= 1.007E-07 alpha_mix =  0.700 |ddv_scf|^2 =  5.328E-14

      iter #   6 total cpu time : 29055.7 secs   av.it.:  15.5
      thresh= 2.308E-08 alpha_mix =  0.700 |ddv_scf|^2 =  2.635E-15

     End of self-consistent calculation

     Convergence has been achieved 


     Representation #  52 mode #  52

     Self-consistent Calculation

      iter #   1 total cpu time : 29118.7 secs   av.it.:   3.1
      thresh= 1.000E-02 alpha_mix =  0.700 |ddv_scf|^2 =  2.347E-09

      iter #   2 total cpu time : 29206.1 secs   av.it.:  15.9
      thresh= 4.845E-06 alpha_mix =  0.700 |ddv_scf|^2 =  1.242E-09

      iter #   3 total cpu time : 29289.8 secs   av.it.:  14.9
      thresh= 3.525E-06 alpha_mix =  0.700 |ddv_scf|^2 =  1.274E-11

      iter #   4 total cpu time : 29371.6 secs   av.it.:  15.0
      thresh= 3.570E-07 alpha_mix =  0.700 |ddv_scf|^2 =  1.232E-12

      iter #   5 total cpu time : 29454.7 secs   av.it.:  15.2
      thresh= 1.110E-07 alpha_mix =  0.700 |ddv_scf|^2 =  5.140E-14

      iter #   6 total cpu time : 29537.3 secs   av.it.:  15.1
      thresh= 2.267E-08 alpha_mix =  0.700 |ddv_scf|^2 =  1.408E-15

     End of self-consistent calculation

     Convergence has been achieved 


     Representation #  53 mode #  53

     Self-consistent Calculation

      iter #   1 total cpu time : 29598.4 secs   av.it.:   3.0
      thresh= 1.000E-02 alpha_mix =  0.700 |ddv_scf|^2 =  1.350E-09

      iter #   2 total cpu time : 29683.7 secs   av.it.:  15.9
      thresh= 3.675E-06 alpha_mix =  0.700 |ddv_scf|^2 =  5.948E-10

      iter #   3 total cpu time : 29764.9 secs   av.it.:  15.0
      thresh= 2.439E-06 alpha_mix =  0.700 |ddv_scf|^2 =  8.614E-12

      iter #   4 total cpu time : 29850.7 secs   av.it.:  15.3
      thresh= 2.935E-07 alpha_mix =  0.700 |ddv_scf|^2 =  1.141E-12

      iter #   5 total cpu time : 29935.9 secs   av.it.:  15.0
      thresh= 1.068E-07 alpha_mix =  0.700 |ddv_scf|^2 =  6.041E-14

      iter #   6 total cpu time : 30022.3 secs   av.it.:  15.3
      thresh= 2.458E-08 alpha_mix =  0.700 |ddv_scf|^2 =  1.738E-15

     End of self-consistent calculation

     Convergence has been achieved 


     Representation #  54 mode #  54

     Self-consistent Calculation

      iter #   1 total cpu time : 30085.5 secs   av.it.:   3.0
      thresh= 1.000E-02 alpha_mix =  0.700 |ddv_scf|^2 =  4.080E-09

      iter #   2 total cpu time : 30169.3 secs   av.it.:  15.3
      thresh= 6.387E-06 alpha_mix =  0.700 |ddv_scf|^2 =  2.835E-09

      iter #   3 total cpu time : 30250.5 secs   av.it.:  14.6
      thresh= 5.325E-06 alpha_mix =  0.700 |ddv_scf|^2 =  6.304E-12

      iter #   4 total cpu time : 30336.4 secs   av.it.:  15.7
      thresh= 2.511E-07 alpha_mix =  0.700 |ddv_scf|^2 =  7.388E-13

      iter #   5 total cpu time : 30421.8 secs   av.it.:  15.3
      thresh= 8.595E-08 alpha_mix =  0.700 |ddv_scf|^2 =  2.434E-14

      iter #   6 total cpu time : 30510.0 secs   av.it.:  15.9
      thresh= 1.560E-08 alpha_mix =  0.700 |ddv_scf|^2 =  2.107E-15

     End of self-consistent calculation

     Convergence has been achieved 


     Representation #  55 mode #  55

     Self-consistent Calculation

      iter #   1 total cpu time : 30571.7 secs   av.it.:   3.0
      thresh= 1.000E-02 alpha_mix =  0.700 |ddv_scf|^2 =  6.704E-10

      iter #   2 total cpu time : 30660.4 secs   av.it.:  16.0
      thresh= 2.589E-06 alpha_mix =  0.700 |ddv_scf|^2 =  1.541E-10

      iter #   3 total cpu time : 30746.7 secs   av.it.:  15.4
      thresh= 1.241E-06 alpha_mix =  0.700 |ddv_scf|^2 =  7.056E-12

      iter #   4 total cpu time : 30833.7 secs   av.it.:  15.4
      thresh= 2.656E-07 alpha_mix =  0.700 |ddv_scf|^2 =  1.573E-13

      iter #   5 total cpu time : 30922.3 secs   av.it.:  15.9
      thresh= 3.966E-08 alpha_mix =  0.700 |ddv_scf|^2 =  2.630E-14

      iter #   6 total cpu time : 31005.5 secs   av.it.:  15.0
      thresh= 1.622E-08 alpha_mix =  0.700 |ddv_scf|^2 =  1.809E-15

     End of self-consistent calculation

     Convergence has been achieved 


     Representation #  56 mode #  56

     Self-consistent Calculation

      iter #   1 total cpu time : 31084.5 secs   av.it.:   6.8
      thresh= 1.000E-02 alpha_mix =  0.700 |ddv_scf|^2 =  2.149E-07

      iter #   2 total cpu time : 31169.9 secs   av.it.:  15.2
      thresh= 4.636E-05 alpha_mix =  0.700 |ddv_scf|^2 =  1.697E-07

      iter #   3 total cpu time : 31251.8 secs   av.it.:  14.5
      thresh= 4.119E-05 alpha_mix =  0.700 |ddv_scf|^2 =  1.421E-10

      iter #   4 total cpu time : 31339.1 secs   av.it.:  15.6
      thresh= 1.192E-06 alpha_mix =  0.700 |ddv_scf|^2 =  2.187E-11

      iter #   5 total cpu time : 31425.9 secs   av.it.:  15.5
      thresh= 4.677E-07 alpha_mix =  0.700 |ddv_scf|^2 =  1.138E-12

      iter #   6 total cpu time : 31512.7 secs   av.it.:  15.6
      thresh= 1.067E-07 alpha_mix =  0.700 |ddv_scf|^2 =  2.723E-14

      iter #   7 total cpu time : 31600.4 secs   av.it.:  15.6
      thresh= 1.650E-08 alpha_mix =  0.700 |ddv_scf|^2 =  2.191E-15

     End of self-consistent calculation

     Convergence has been achieved 


     Representation #  57 mode #  57

     Self-consistent Calculation

      iter #   1 total cpu time : 31675.1 secs   av.it.:   5.0
      thresh= 1.000E-02 alpha_mix =  0.700 |ddv_scf|^2 =  3.494E-08

      iter #   2 total cpu time : 31762.8 secs   av.it.:  15.3
      thresh= 1.869E-05 alpha_mix =  0.700 |ddv_scf|^2 =  2.423E-08

      iter #   3 total cpu time : 31845.2 secs   av.it.:  14.7
      thresh= 1.557E-05 alpha_mix =  0.700 |ddv_scf|^2 =  5.574E-11

      iter #   4 total cpu time : 31929.2 secs   av.it.:  15.9
      thresh= 7.466E-07 alpha_mix =  0.700 |ddv_scf|^2 =  5.379E-12

      iter #   5 total cpu time : 32015.2 secs   av.it.:  15.6
      thresh= 2.319E-07 alpha_mix =  0.700 |ddv_scf|^2 =  8.735E-13

      iter #   6 total cpu time : 32101.8 secs   av.it.:  15.4
      thresh= 9.346E-08 alpha_mix =  0.700 |ddv_scf|^2 =  5.901E-15

     End of self-consistent calculation

     Convergence has been achieved 


     Representation #  58 mode #  58

     Self-consistent Calculation

      iter #   1 total cpu time : 32179.7 secs   av.it.:   3.0
      thresh= 1.000E-02 alpha_mix =  0.700 |ddv_scf|^2 =  8.742E-10

      iter #   2 total cpu time : 32263.3 secs   av.it.:  15.7
      thresh= 2.957E-06 alpha_mix =  0.700 |ddv_scf|^2 =  3.746E-10

      iter #   3 total cpu time : 32343.5 secs   av.it.:  14.9
      thresh= 1.935E-06 alpha_mix =  0.700 |ddv_scf|^2 =  1.196E-11

      iter #   4 total cpu time : 32427.3 secs   av.it.:  15.0
      thresh= 3.459E-07 alpha_mix =  0.700 |ddv_scf|^2 =  4.027E-13

      iter #   5 total cpu time : 32514.9 secs   av.it.:  15.5
      thresh= 6.346E-08 alpha_mix =  0.700 |ddv_scf|^2 =  2.157E-14

      iter #   6 total cpu time : 32600.0 secs   av.it.:  15.5
      thresh= 1.469E-08 alpha_mix =  0.700 |ddv_scf|^2 =  1.690E-15

     End of self-consistent calculation

     Convergence has been achieved 


     Representation #  59 mode #  59

     Self-consistent Calculation

      iter #   1 total cpu time : 32661.4 secs   av.it.:   3.0
      thresh= 1.000E-02 alpha_mix =  0.700 |ddv_scf|^2 =  1.566E-09

      iter #   2 total cpu time : 32748.0 secs   av.it.:  15.9
      thresh= 3.957E-06 alpha_mix =  0.700 |ddv_scf|^2 =  7.353E-10

      iter #   3 total cpu time : 32829.5 secs   av.it.:  14.9
      thresh= 2.712E-06 alpha_mix =  0.700 |ddv_scf|^2 =  1.170E-11

      iter #   4 total cpu time : 32914.9 secs   av.it.:  15.0
      thresh= 3.421E-07 alpha_mix =  0.700 |ddv_scf|^2 =  1.160E-12

      iter #   5 total cpu time : 32998.5 secs   av.it.:  15.1
      thresh= 1.077E-07 alpha_mix =  0.700 |ddv_scf|^2 =  4.665E-14

      iter #   6 total cpu time : 33083.6 secs   av.it.:  15.2
      thresh= 2.160E-08 alpha_mix =  0.700 |ddv_scf|^2 =  1.642E-15

     End of self-consistent calculation

     Convergence has been achieved 


     Representation #  60 mode #  60

     Self-consistent Calculation

      iter #   1 total cpu time : 33145.7 secs   av.it.:   3.0
      thresh= 1.000E-02 alpha_mix =  0.700 |ddv_scf|^2 =  2.214E-09

      iter #   2 total cpu time : 33231.9 secs   av.it.:  15.9
      thresh= 4.706E-06 alpha_mix =  0.700 |ddv_scf|^2 =  1.229E-09

      iter #   3 total cpu time : 33314.6 secs   av.it.:  14.9
      thresh= 3.505E-06 alpha_mix =  0.700 |ddv_scf|^2 =  5.540E-12

      iter #   4 total cpu time : 33399.9 secs   av.it.:  15.8
      thresh= 2.354E-07 alpha_mix =  0.700 |ddv_scf|^2 =  1.629E-12

      iter #   5 total cpu time : 33483.2 secs   av.it.:  15.0
      thresh= 1.276E-07 alpha_mix =  0.700 |ddv_scf|^2 =  4.733E-14

      iter #   6 total cpu time : 33568.8 secs   av.it.:  15.8
      thresh= 2.175E-08 alpha_mix =  0.700 |ddv_scf|^2 =  2.221E-15

     End of self-consistent calculation

     Convergence has been achieved 


     Representation #  61 mode #  61

     Self-consistent Calculation

      iter #   1 total cpu time : 33631.5 secs   av.it.:   3.1
      thresh= 1.000E-02 alpha_mix =  0.700 |ddv_scf|^2 =  5.495E-09

      iter #   2 total cpu time : 33713.9 secs   av.it.:  15.2
      thresh= 7.413E-06 alpha_mix =  0.700 |ddv_scf|^2 =  3.470E-09

      iter #   3 total cpu time : 33795.6 secs   av.it.:  14.8
      thresh= 5.891E-06 alpha_mix =  0.700 |ddv_scf|^2 =  1.368E-11

      iter #   4 total cpu time : 33880.3 secs   av.it.:  15.0
      thresh= 3.699E-07 alpha_mix =  0.700 |ddv_scf|^2 =  1.207E-12

      iter #   5 total cpu time : 33963.1 secs   av.it.:  15.3
      thresh= 1.099E-07 alpha_mix =  0.700 |ddv_scf|^2 =  7.683E-14

      iter #   6 total cpu time : 34047.1 secs   av.it.:  15.0
      thresh= 2.772E-08 alpha_mix =  0.700 |ddv_scf|^2 =  1.541E-15

     End of self-consistent calculation

     Convergence has been achieved 


     Representation #  62 mode #  62

     Self-consistent Calculation

      iter #   1 total cpu time : 34115.0 secs   av.it.:   4.4
[...]

      iter #   4 total cpu time :979019.1 secs   av.it.:  15.0
      thresh= 6.679E-07 alpha_mix =  0.700 |ddv_scf|^2 =  3.605E-12

      iter #   5 total cpu time :979428.3 secs   av.it.:  15.0
      thresh= 1.899E-07 alpha_mix =  0.700 |ddv_scf|^2 =  1.840E-13

      iter #   6 total cpu time :979836.5 secs   av.it.:  15.2
      thresh= 4.290E-08 alpha_mix =  0.700 |ddv_scf|^2 =  1.511E-14

      iter #   7 total cpu time :980247.2 secs   av.it.:  15.8
      thresh= 1.229E-08 alpha_mix =  0.700 |ddv_scf|^2 =  1.430E-15

     End of self-consistent calculation

     Convergence has been achieved 


     Representation #  64 mode #  64

     Self-consistent Calculation

      iter #   1 total cpu time :980433.9 secs   av.it.:   3.2
      thresh= 1.000E-02 alpha_mix =  0.700 |ddv_scf|^2 =  4.760E-09

      iter #   2 total cpu time :980852.8 secs   av.it.:  16.0
      thresh= 6.899E-06 alpha_mix =  0.700 |ddv_scf|^2 =  3.590E-09

      iter #   3 total cpu time :981251.1 secs   av.it.:  15.0
      thresh= 5.991E-06 alpha_mix =  0.700 |ddv_scf|^2 =  3.601E-11

      iter #   4 total cpu time :981659.2 secs   av.it.:  15.0
      thresh= 6.001E-07 alpha_mix =  0.700 |ddv_scf|^2 =  4.744E-12

      iter #   5 total cpu time :982064.1 secs   av.it.:  15.0
      thresh= 2.178E-07 alpha_mix =  0.700 |ddv_scf|^2 =  1.839E-13

      iter #   6 total cpu time :982476.7 secs   av.it.:  15.4
      thresh= 4.289E-08 alpha_mix =  0.700 |ddv_scf|^2 =  1.773E-14

      iter #   7 total cpu time :982889.9 secs   av.it.:  15.4
      thresh= 1.331E-08 alpha_mix =  0.700 |ddv_scf|^2 =  2.253E-15

     End of self-consistent calculation

     Convergence has been achieved 


     Representation #  65 mode #  65

     Self-consistent Calculation

      iter #   1 total cpu time :983072.9 secs   av.it.:   3.0
      thresh= 1.000E-02 alpha_mix =  0.700 |ddv_scf|^2 =  4.574E-09

      iter #   2 total cpu time :983480.9 secs   av.it.:  15.1
      thresh= 6.763E-06 alpha_mix =  0.700 |ddv_scf|^2 =  4.468E-09

      iter #   3 total cpu time :983863.6 secs   av.it.:  14.0
      thresh= 6.684E-06 alpha_mix =  0.700 |ddv_scf|^2 =  3.202E-11

      iter #   4 total cpu time :984270.2 secs   av.it.:  15.0
      thresh= 5.659E-07 alpha_mix =  0.700 |ddv_scf|^2 =  2.284E-12

      iter #   5 total cpu time :984680.2 secs   av.it.:  15.4
      thresh= 1.511E-07 alpha_mix =  0.700 |ddv_scf|^2 =  1.501E-13

      iter #   6 total cpu time :985087.6 secs   av.it.:  15.0
      thresh= 3.874E-08 alpha_mix =  0.700 |ddv_scf|^2 =  1.103E-14

      iter #   7 total cpu time :985497.8 secs   av.it.:  15.4
      thresh= 1.050E-08 alpha_mix =  0.700 |ddv_scf|^2 =  8.791E-16

     End of self-consistent calculation

     Convergence has been achieved 


     Representation #  66 mode #  66

     Self-consistent Calculation

      iter #   1 total cpu time :985681.4 secs   av.it.:   3.1
      thresh= 1.000E-02 alpha_mix =  0.700 |ddv_scf|^2 =  3.842E-09

      iter #   2 total cpu time :986074.5 secs   av.it.:  15.9
      thresh= 6.198E-06 alpha_mix =  0.700 |ddv_scf|^2 =  2.617E-09

      iter #   3 total cpu time :986467.0 secs   av.it.:  15.0
      thresh= 5.115E-06 alpha_mix =  0.700 |ddv_scf|^2 =  5.402E-11

      iter #   4 total cpu time :986864.0 secs   av.it.:  15.0
      thresh= 7.350E-07 alpha_mix =  0.700 |ddv_scf|^2 =  3.112E-12

      iter #   5 total cpu time :987272.1 secs   av.it.:  15.0
      thresh= 1.764E-07 alpha_mix =  0.700 |ddv_scf|^2 =  1.158E-13

      iter #   6 total cpu time :987686.8 secs   av.it.:  15.8
      thresh= 3.403E-08 alpha_mix =  0.700 |ddv_scf|^2 =  1.295E-14

      iter #   7 total cpu time :988097.7 secs   av.it.:  15.2
      thresh= 1.138E-08 alpha_mix =  0.700 |ddv_scf|^2 =  1.091E-15

     End of self-consistent calculation

     Convergence has been achieved 

     Number of q in the star =    4
     List of q in the star:
          1   0.333333333   0.325493732   0.482585772
          2   0.333333333  -0.325493732  -0.482585772
          3  -0.333333333   0.325493732  -0.482585772
          4  -0.333333333  -0.325493732   0.482585772
     In addition there is the -q list: 
          1  -0.333333333  -0.325493732  -0.482585772
          2  -0.333333333   0.325493732   0.482585772
          3   0.333333333  -0.325493732   0.482585772
          4   0.333333333   0.325493732  -0.482585772

     Diagonalizing the dynamical matrix

     q = (    0.333333333   0.325493732   0.482585772 ) 

 **************************************************************************
     freq (    1) =       1.253156 [THz] =      41.800782 [cm-1]
     freq (    2) =       1.310845 [THz] =      43.725073 [cm-1]
     freq (    3) =       1.727362 [THz] =      57.618594 [cm-1]
     freq (    4) =       1.963653 [THz] =      65.500427 [cm-1]
     freq (    5) =       2.900321 [THz] =      96.744292 [cm-1]
     freq (    6) =       2.999653 [THz] =     100.057651 [cm-1]
     freq (    7) =       4.880102 [THz] =     162.782697 [cm-1]
     freq (    8) =       4.982426 [THz] =     166.195842 [cm-1]
     freq (    9) =       5.646217 [THz] =     188.337519 [cm-1]
     freq (   10) =       5.938950 [THz] =     198.102048 [cm-1]
     freq (   11) =       6.316829 [THz] =     210.706725 [cm-1]
     freq (   12) =       6.343767 [THz] =     211.605295 [cm-1]
     freq (   13) =       6.592649 [THz] =     219.907113 [cm-1]
     freq (   14) =       6.933674 [THz] =     231.282468 [cm-1]
     freq (   15) =       7.414804 [THz] =     247.331232 [cm-1]
     freq (   16) =       7.512592 [THz] =     250.593090 [cm-1]
     freq (   17) =       8.456547 [THz] =     282.080044 [cm-1]
     freq (   18) =       8.517106 [THz] =     284.100062 [cm-1]
     freq (   19) =       8.731747 [THz] =     291.259727 [cm-1]
     freq (   20) =       8.783341 [THz] =     292.980729 [cm-1]
     freq (   21) =       9.502120 [THz] =     316.956603 [cm-1]
     freq (   22) =       9.690614 [THz] =     323.244088 [cm-1]
     freq (   23) =       9.729947 [THz] =     324.556094 [cm-1]
     freq (   24) =       9.806591 [THz] =     327.112656 [cm-1]
     freq (   25) =      10.422986 [THz] =     347.673404 [cm-1]
     freq (   26) =      10.556331 [THz] =     352.121312 [cm-1]
     freq (   27) =      13.175127 [THz] =     439.474928 [cm-1]
     freq (   28) =      13.234965 [THz] =     441.470900 [cm-1]
     freq (   29) =      13.289513 [THz] =     443.290447 [cm-1]
     freq (   30) =      13.388298 [THz] =     446.585555 [cm-1]
     freq (   31) =      30.808957 [THz] =    1027.676182 [cm-1]
     freq (   32) =      30.825498 [THz] =    1028.227945 [cm-1]
     freq (   33) =      30.989871 [THz] =    1033.710825 [cm-1]
     freq (   34) =      31.012643 [THz] =    1034.470427 [cm-1]
     freq (   35) =      31.900117 [THz] =    1064.073351 [cm-1]
     freq (   36) =      31.922249 [THz] =    1064.811597 [cm-1]
     freq (   37) =      31.956613 [THz] =    1065.957880 [cm-1]
     freq (   38) =      32.008597 [THz] =    1067.691873 [cm-1]
     freq (   39) =      32.280816 [THz] =    1076.772117 [cm-1]
     freq (   40) =      32.307919 [THz] =    1077.676192 [cm-1]
     freq (   41) =      32.408646 [THz] =    1081.036053 [cm-1]
     freq (   42) =      32.459401 [THz] =    1082.729068 [cm-1]
     freq (   43) =      35.847956 [THz] =    1195.759096 [cm-1]
     freq (   44) =      35.878899 [THz] =    1196.791233 [cm-1]
     freq (   45) =      36.049597 [THz] =    1202.485130 [cm-1]
     freq (   46) =      36.083422 [THz] =    1203.613387 [cm-1]
     freq (   47) =      36.140662 [THz] =    1205.522734 [cm-1]
     freq (   48) =      36.159773 [THz] =    1206.160209 [cm-1]
     freq (   49) =      36.217465 [THz] =    1208.084607 [cm-1]
     freq (   50) =      36.236383 [THz] =    1208.715619 [cm-1]
     freq (   51) =      68.225588 [THz] =    2275.760637 [cm-1]
     freq (   52) =      68.246031 [THz] =    2276.442567 [cm-1]
     freq (   53) =      68.273475 [THz] =    2277.357990 [cm-1]
     freq (   54) =      68.315179 [THz] =    2278.749079 [cm-1]
     freq (   55) =      70.160239 [THz] =    2340.293658 [cm-1]
     freq (   56) =      70.167764 [THz] =    2340.544682 [cm-1]
     freq (   57) =      70.304208 [THz] =    2345.095960 [cm-1]
     freq (   58) =      70.307921 [THz] =    2345.219796 [cm-1]
     freq (   59) =      70.924950 [THz] =    2365.801671 [cm-1]
     freq (   60) =      70.934249 [THz] =    2366.111869 [cm-1]
     freq (   61) =      71.016209 [THz] =    2368.845757 [cm-1]
     freq (   62) =      71.043221 [THz] =    2369.746762 [cm-1]
     freq (   63) =      71.496875 [THz] =    2384.879049 [cm-1]
     freq (   64) =      71.512571 [THz] =    2385.402603 [cm-1]
     freq (   65) =      71.612396 [THz] =    2388.732405 [cm-1]
     freq (   66) =      71.651459 [THz] =    2390.035420 [cm-1]
 **************************************************************************

     Mode symmetry, C_1 (1)     point group:

     freq (   1-   1) =         41.8  [cm-1]   --> A                  
     freq (   2-   2) =         43.7  [cm-1]   --> A                  
     freq (   3-   3) =         57.6  [cm-1]   --> A                  
     freq (   4-   4) =         65.5  [cm-1]   --> A                  
     freq (   5-   5) =         96.7  [cm-1]   --> A                  
     freq (   6-   6) =        100.1  [cm-1]   --> A                  
     freq (   7-   7) =        162.8  [cm-1]   --> A                  
     freq (   8-   8) =        166.2  [cm-1]   --> A                  
     freq (   9-   9) =        188.3  [cm-1]   --> A                  
     freq (  10-  10) =        198.1  [cm-1]   --> A                  
     freq (  11-  11) =        210.7  [cm-1]   --> A                  
     freq (  12-  12) =        211.6  [cm-1]   --> A                  
     freq (  13-  13) =        219.9  [cm-1]   --> A                  
     freq (  14-  14) =        231.3  [cm-1]   --> A                  
     freq (  15-  15) =        247.3  [cm-1]   --> A                  
     freq (  16-  16) =        250.6  [cm-1]   --> A                  
     freq (  17-  17) =        282.1  [cm-1]   --> A                  
     freq (  18-  18) =        284.1  [cm-1]   --> A                  
     freq (  19-  19) =        291.3  [cm-1]   --> A                  
     freq (  20-  20) =        293.0  [cm-1]   --> A                  
     freq (  21-  21) =        317.0  [cm-1]   --> A                  
     freq (  22-  22) =        323.2  [cm-1]   --> A                  
     freq (  23-  23) =        324.6  [cm-1]   --> A                  
     freq (  24-  24) =        327.1  [cm-1]   --> A                  
     freq (  25-  25) =        347.7  [cm-1]   --> A                  
     freq (  26-  26) =        352.1  [cm-1]   --> A                  
     freq (  27-  27) =        439.5  [cm-1]   --> A                  
     freq (  28-  28) =        441.5  [cm-1]   --> A                  
     freq (  29-  29) =        443.3  [cm-1]   --> A                  
     freq (  30-  30) =        446.6  [cm-1]   --> A                  
     freq (  31-  31) =       1027.7  [cm-1]   --> A                  
     freq (  32-  32) =       1028.2  [cm-1]   --> A                  
     freq (  33-  33) =       1033.7  [cm-1]   --> A                  
     freq (  34-  34) =       1034.5  [cm-1]   --> A                  
     freq (  35-  35) =       1064.1  [cm-1]   --> A                  
     freq (  36-  36) =       1064.8  [cm-1]   --> A                  
     freq (  37-  37) =       1066.0  [cm-1]   --> A                  
     freq (  38-  38) =       1067.7  [cm-1]   --> A                  
     freq (  39-  39) =       1076.8  [cm-1]   --> A                  
     freq (  40-  40) =       1077.7  [cm-1]   --> A                  
     freq (  41-  41) =       1081.0  [cm-1]   --> A                  
     freq (  42-  42) =       1082.7  [cm-1]   --> A                  
     freq (  43-  43) =       1195.8  [cm-1]   --> A                  
     freq (  44-  44) =       1196.8  [cm-1]   --> A                  
     freq (  45-  45) =       1202.5  [cm-1]   --> A                  
     freq (  46-  46) =       1203.6  [cm-1]   --> A                  
     freq (  47-  47) =       1205.5  [cm-1]   --> A                  
     freq (  48-  48) =       1206.2  [cm-1]   --> A                  
     freq (  49-  49) =       1208.1  [cm-1]   --> A                  
     freq (  50-  50) =       1208.7  [cm-1]   --> A                  
     freq (  51-  51) =       2275.8  [cm-1]   --> A                  
     freq (  52-  52) =       2276.4  [cm-1]   --> A                  
     freq (  53-  53) =       2277.4  [cm-1]   --> A                  
     freq (  54-  54) =       2278.7  [cm-1]   --> A                  
     freq (  55-  55) =       2340.3  [cm-1]   --> A                  
     freq (  56-  56) =       2340.5  [cm-1]   --> A                  
     freq (  57-  57) =       2345.1  [cm-1]   --> A                  
     freq (  58-  58) =       2345.2  [cm-1]   --> A                  
     freq (  59-  59) =       2365.8  [cm-1]   --> A                  
     freq (  60-  60) =       2366.1  [cm-1]   --> A                  
     freq (  61-  61) =       2368.8  [cm-1]   --> A                  
     freq (  62-  62) =       2369.7  [cm-1]   --> A                  
     freq (  63-  63) =       2384.9  [cm-1]   --> A                  
     freq (  64-  64) =       2385.4  [cm-1]   --> A                  
     freq (  65-  65) =       2388.7  [cm-1]   --> A                  
     freq (  66-  66) =       2390.0  [cm-1]   --> A                  

     init_run     :      8.47s CPU      8.73s WALL (       7 calls)
     electrons    :   5034.02s CPU   5071.11s WALL (       7 calls)

     Called by init_run:
     wfcinit      :      0.00s CPU      0.00s WALL (       7 calls)
     potinit      :      1.00s CPU      1.11s WALL (       7 calls)
     hinit0       :      0.94s CPU      0.98s WALL (       7 calls)

     Called by electrons:
     c_bands      :   5034.02s CPU   5071.10s WALL (       7 calls)
     v_of_rho     :      0.92s CPU      0.99s WALL (       8 calls)
     newd         :      1.47s CPU      1.50s WALL (       8 calls)

     Called by c_bands:
     init_us_2    :   2133.32s CPU   2329.74s WALL (  443814 calls)
     cegterg      :   4625.21s CPU   4656.56s WALL (    2773 calls)

     Called by *egterg:
     cdiaghg      :    148.23s CPU    149.03s WALL (   32028 calls)
     h_psi        : 526764.36s CPU 531380.81s WALL ( 5603091 calls)
     s_psi        : 209878.81s CPU 210822.22s WALL (11512454 calls)
     g_psi        :      9.54s CPU      9.60s WALL (   30638 calls)

     Called by h_psi:
     h_psi:calbec :  88017.93s CPU  88508.01s WALL ( 5603091 calls)
     vloc_psi     : 334521.90s CPU 338179.44s WALL ( 5603091 calls)
     add_vuspsi   : 101929.79s CPU 102396.79s WALL ( 5603091 calls)

     General routines
     calbec       : 192884.68s CPU 193924.88s WALL (12187323 calls)
     fft          :   1050.90s CPU   1114.05s WALL (  101855 calls)
     ffts         :   2889.54s CPU   2921.24s WALL (   92754 calls)
     fftw         : 342910.07s CPU 346912.03s WALL (******** calls)
     interpolate  :     66.70s CPU     77.26s WALL (    7944 calls)
     davcio       :    836.68s CPU   1273.56s WALL ( 1903458 calls)

     Parallel routines

     PHONON       :  11d 7h55m CPU  11d10h28m WALL

     INITIALIZATION: 
     phq_setup    :      2.74s CPU      3.36s WALL (       8 calls)
     phq_init     :   4261.06s CPU   4300.98s WALL (       8 calls)

     phq_init     :   4261.06s CPU   4300.98s WALL (       8 calls)
     set_drhoc    :      0.10s CPU      0.10s WALL (      24 calls)
     init_vloc    :      0.24s CPU      0.24s WALL (       8 calls)
     init_us_1    :      0.17s CPU      0.21s WALL (       8 calls)
     init_us_2    :   2133.32s CPU   2329.74s WALL (  443814 calls)
     newd         :      1.47s CPU      1.50s WALL (       8 calls)
     dvanqq       :    171.37s CPU    173.37s WALL (       8 calls)
     drho         :   3827.13s CPU   3863.48s WALL (       8 calls)
     drhous       :   3493.60s CPU   3524.25s WALL (       8 calls)
     nldyntot     :     83.55s CPU     83.64s WALL (       8 calls)

     DYNAMICAL MATRIX:
     dynmat0      :    204.29s CPU    205.04s WALL (       8 calls)
     dynmat_us    :    157.28s CPU    157.90s WALL (       8 calls)
     addusdynmat  :      0.02s CPU      0.06s WALL (       8 calls)
     d2ionq       :     44.60s CPU     44.64s WALL (       8 calls)
     dynmatcc     :      2.25s CPU      2.33s WALL (       8 calls)
     phqscf       : 965015.93s CPU 974057.55s WALL (       8 calls)
     dynmatrix    :      0.79s CPU      0.98s WALL (       8 calls)

     phqscf       : 965015.93s CPU 974057.55s WALL (       8 calls)
     solve_linter : 959012.07s CPU 967912.65s WALL (     528 calls)
     sth_kernel   : 932707.86s CPU 940696.52s WALL (    3685 calls)
     h_prec       :    731.48s CPU    737.66s WALL (  340614 calls)
     apply_dpot_b :  20374.38s CPU  20820.32s WALL (  293178 calls)
     ortho        :  15228.39s CPU  15344.87s WALL (  340992 calls)
     cgsolve      : 859023.50s CPU 865341.54s WALL (  340992 calls)
     incdrhoscf   :  34226.10s CPU  34820.36s WALL (  340992 calls)
                                        0.00s GPU  (  340992 calls)
     addusddens   :   1277.32s CPU   1295.16s WALL (    4206 calls)
     dv_of_drho   :    358.61s CPU    392.27s WALL (    3702 calls)
     mix_pot      :     40.48s CPU    107.71s WALL (    3685 calls)
     drhodv       :   4442.16s CPU   4488.76s WALL (     528 calls)
     psymdvscf    :   1514.19s CPU   1568.07s WALL (    1745 calls)
     newdq        :   1561.74s CPU   1573.44s WALL (    3685 calls)
     adddvscf     :   1022.13s CPU   1040.29s WALL (  293178 calls)
     drhodvus     :     23.09s CPU     45.30s WALL (     528 calls)

     dvqpsi_us    :  23441.52s CPU  23541.53s WALL (   49434 calls)
                                        0.00s GPU  (   49434 calls)
     dvqpsi_us_on :  17221.16s CPU  17257.41s WALL (   49434 calls)

     add_vuspsi   : 101929.79s CPU 102396.79s WALL ( 5603091 calls)
     addusdbec    :   7043.17s CPU   7083.12s WALL (  388644 calls)

     drhodvus     :     23.09s CPU     45.30s WALL (     528 calls)

      General routines
     calbec       : 192884.68s CPU 193924.88s WALL (12187323 calls)
     fft          :   1050.90s CPU   1114.05s WALL (  101855 calls)
     ffts         :   2889.54s CPU   2921.24s WALL (   92754 calls)
     fftw         : 342910.07s CPU 346912.03s WALL (******** calls)
     davcio       :    836.68s CPU   1273.56s WALL ( 1903458 calls)
     write_rec    :     69.23s CPU    669.24s WALL (    4213 calls)

      Additional routines
     ch_psi       : 848557.69s CPU 854728.72s WALL ( 5568290 calls)
     last         : 219815.72s CPU 220936.65s WALL ( 5568290 calls)
     Hesh         :   1453.05s CPU   1469.36s WALL ( 5568290 calls)
     ch_psi_all_k : 218274.93s CPU 219387.84s WALL ( 5568290 calls)
                                        0.00s GPU  ( 5568290 calls)
     ch_psi_calbe :  86737.22s CPU  87108.64s WALL ( 5568290 calls)
                                        0.00s GPU  ( 5568290 calls)
     h_psi_bgrp   : 526812.68s CPU 531420.16s WALL ( 5603091 calls)
     h_psi        : 526764.36s CPU 531380.81s WALL ( 5603091 calls)
     h_psi:pot    : 524598.09s CPU 529178.48s WALL ( 5603091 calls)
     h_psi:calbec :  88017.93s CPU  88508.01s WALL ( 5603091 calls)
     s_psi_bgrp   : 212336.03s CPU 213248.98s WALL (11512454 calls)
     s_psi        : 209878.81s CPU 210822.22s WALL (11512454 calls)


     PHONON       :  11d 7h55m CPU  11d10h28m WALL


   This run was terminated on:  22:49:38  23Jul2024            

=------------------------------------------------------------------------------=
   JOB DONE.
=------------------------------------------------------------------------------=
