
     Program Q2R v.7.3.1 starts on 23Jul2024 at 22:49:38 

     This program is part of the open-source Quantum ESPRESSO suite
     for quantum simulation of materials; please cite
         "P. Giannozzi et al., J. Phys.:Condens. Matter 21 395502 (2009);
         "P. Giannozzi et al., J. Phys.:Condens. Matter 29 465901 (2017);
         "P. Giannozzi et al., J. Chem. Phys. 152 154105 (2020);
          URL http://www.quantum-espresso.org", 
     in publications or presentations arising from this work. More details at
     http://www.quantum-espresso.org/quote

     Parallel version (MPI), running on    24 processors

     MPI processes distributed on     1 nodes
     R & G space division:  proc/nbgrp/npool/nimage =      24
     71317 MiB available memory on the printing compute node when the environment starts


  reading grid info from file dyn0    

  reading force constants from file dyn1
 macroscopic fields = T
   3.10656   0.00000   0.00000
   0.00000   3.16489   0.00000
   0.00000   0.00000   3.30400
  na=            1
   2.48896  -0.04748   0.00000
   0.28638   2.50900   0.00000
   0.00000   0.00000   2.95725
  na=            2
   2.48896   0.04748   0.00000
  -0.28638   2.50900   0.00000
   0.00000   0.00000   2.95725
  na=            3
  -0.14629   0.03177   0.00002
   0.17469  -0.03949  -0.00002
  -0.00002   0.00001  -0.20067
  na=            4
  -0.14629   0.03177  -0.00002
   0.17469  -0.03949   0.00002
   0.00002  -0.00001  -0.20067
  na=            5
  -0.14629  -0.03177  -0.00002
  -0.17469  -0.03949  -0.00002
   0.00002   0.00001  -0.20067
  na=            6
  -0.14629  -0.03177   0.00002
  -0.17469  -0.03949   0.00002
  -0.00002  -0.00001  -0.20067
  na=            7
  -0.43025   0.13787   0.00004
   0.14443  -0.24909  -0.00005
   0.00004  -0.00005  -0.24829
  na=            8
  -0.43025   0.13787  -0.00004
   0.14443  -0.24909   0.00005
  -0.00004   0.00005  -0.24829
  na=            9
  -0.43025  -0.13787  -0.00004
  -0.14443  -0.24909  -0.00005
  -0.00004  -0.00005  -0.24829
  na=           10
  -0.43025  -0.13787   0.00004
  -0.14443  -0.24909   0.00005
   0.00004   0.00005  -0.24829
  na=           11
  -0.26455  -0.04009   0.00000
  -0.11232  -0.42997  -0.00000
   0.00002   0.00001  -0.24329
  na=           12
  -0.26455  -0.04009  -0.00000
  -0.11232  -0.42997   0.00000
  -0.00002  -0.00001  -0.24329
  na=           13
  -0.26455   0.04009  -0.00000
   0.11232  -0.42997  -0.00000
  -0.00002   0.00001  -0.24329
  na=           14
  -0.26455   0.04009   0.00000
   0.11232  -0.42997   0.00000
   0.00002  -0.00001  -0.24329
  na=           15
  -0.20181   0.14693   0.06102
   0.09868  -0.26737  -0.09536
   0.02177  -0.11258  -0.39298
  na=           16
  -0.20181   0.14693  -0.06102
   0.09868  -0.26737   0.09536
  -0.02177   0.11258  -0.39298
  na=           17
  -0.20181  -0.14693  -0.06102
  -0.09868  -0.26737  -0.09536
  -0.02177  -0.11258  -0.39298
  na=           18
  -0.20181  -0.14693   0.06102
  -0.09868  -0.26737   0.09536
   0.02177   0.11258  -0.39298
  na=           19
  -0.20187   0.14699   0.06109
   0.09873  -0.26740  -0.09539
   0.02182  -0.11258  -0.39298
  na=           20
  -0.20187   0.14699  -0.06109
   0.09873  -0.26740   0.09539
  -0.02182   0.11258  -0.39298
  na=           21
  -0.20187  -0.14699  -0.06109
  -0.09873  -0.26740  -0.09539
  -0.02182  -0.11258  -0.39298
  na=           22
  -0.20187  -0.14699   0.06109
  -0.09873  -0.26740   0.09539
   0.02182   0.11258  -0.39298
  Norm of the difference between old and new effective charges:    0.00108688772245488707
  nqs=            1
 q=   0.00000000  0.00000000  0.00000000
  reading force constants from file dyn2
  nqs=            2
 q=   0.00000000  0.00000000  0.48258577
 q=   0.00000000  0.00000000 -0.48258577
  reading force constants from file dyn3
  nqs=            2
 q=   0.00000000  0.32549373  0.00000000
 q=   0.00000000 -0.32549373  0.00000000
  reading force constants from file dyn4
  nqs=            4
 q=   0.00000000  0.32549373  0.48258577
 q=   0.00000000  0.32549373 -0.48258577
 q=   0.00000000 -0.32549373 -0.48258577
 q=   0.00000000 -0.32549373  0.48258577
  reading force constants from file dyn5
  nqs=            2
 q=   0.33333333  0.00000000  0.00000000
 q=  -0.33333333  0.00000000  0.00000000
  reading force constants from file dyn6
  nqs=            4
 q=   0.33333333  0.00000000  0.48258577
 q=   0.33333333  0.00000000 -0.48258577
 q=  -0.33333333  0.00000000 -0.48258577
 q=  -0.33333333  0.00000000  0.48258577
  reading force constants from file dyn7
  nqs=            4
 q=   0.33333333  0.32549373  0.00000000
 q=   0.33333333 -0.32549373  0.00000000
 q=  -0.33333333  0.32549373  0.00000000
 q=  -0.33333333 -0.32549373  0.00000000
  reading force constants from file dyn8
  nqs=            8
 q=   0.33333333  0.32549373  0.48258577
 q=  -0.33333333 -0.32549373 -0.48258577
 q=   0.33333333 -0.32549373 -0.48258577
 q=  -0.33333333  0.32549373  0.48258577
 q=  -0.33333333  0.32549373 -0.48258577
 q=   0.33333333 -0.32549373  0.48258577
 q=  -0.33333333 -0.32549373  0.48258577
 q=   0.33333333  0.32549373 -0.48258577

      q-space grid ok, #points =   27

      fft-check success (sum of imaginary terms < 10^-12)

     Q2R          :      3.13s CPU      3.18s WALL


   This run was terminated on:  22:49:42  23Jul2024            

=------------------------------------------------------------------------------=
   JOB DONE.
=------------------------------------------------------------------------------=
