
     Program PWSCF v.7.3.1 starts on 12Aug2024 at 11:12:54 

     This program is part of the open-source Quantum ESPRESSO suite
     for quantum simulation of materials; please cite
         "P. Giannozzi et al., J. Phys.:Condens. Matter 21 395502 (2009);
         "P. Giannozzi et al., J. Phys.:Condens. Matter 29 465901 (2017);
         "P. Giannozzi et al., J. Chem. Phys. 152 154105 (2020);
          URL http://www.quantum-espresso.org", 
     in publications or presentations arising from this work. More details at
     http://www.quantum-espresso.org/quote

     Parallel version (MPI), running on    24 processors

     MPI processes distributed on     1 nodes
     93685 MiB available memory on the printing compute node when the environment starts

     Waiting for input...
     Reading input from standard input

     Current dimensions of program PWSCF are:
     Max number of different atomic species (ntypx) = 10
     Max number of k-points (npk) =  40000
     Max angular momentum in pseudopotentials (lmaxx) =  4

     R & G space division:  proc/nbgrp/npool/nimage =      24
     Subspace diagonalization in iterative solution of the eigenvalue problem:
     a serial algorithm will be used


     Parallelization info
     --------------------
     sticks:   dense  smooth     PW     G-vecs:    dense   smooth      PW
     Min         501     250     67                26015     9198    1289
     Max         503     251     68                26017     9201    1292
     Sum       12031    6005   1621               624371   220763   30961

     Using Slab Decomposition


     Title: 
     pre-ph                                                                     


     bravais-lattice index     =            8
     lattice parameter (alat)  =      13.8222  a.u.
     unit-cell volume          =    1633.8810 (a.u.)^3
     number of atoms/cell      =           22
     number of atomic types    =            3
     number of electrons       =        48.00
     number of Kohn-Sham states=           24
     kinetic-energy cutoff     =     100.0000  Ry
     charge density cutoff     =     800.0000  Ry
     scf convergence threshold =      1.0E-10
     mixing beta               =       0.7000
     number of iterations used =            8  plain     mixing
     Exchange-correlation= PBESOL
                           (   1   4  10   8   0   0   0)

     celldm(1)=  13.822166  celldm(2)=   0.988642  celldm(3)=   0.625825
     celldm(4)=   0.000000  celldm(5)=   0.000000  celldm(6)=   0.000000

     crystal axes: (cart. coord. in units of alat)
               a(1) = (   1.000000   0.000000   0.000000 )  
               a(2) = (   0.000000   0.988642   0.000000 )  
               a(3) = (   0.000000   0.000000   0.625825 )  

     reciprocal axes: (cart. coord. in units 2 pi/alat)
               b(1) = (  1.000000  0.000000  0.000000 )  
               b(2) = (  0.000000  1.011489  0.000000 )  
               b(3) = (  0.000000  0.000000  1.597890 )  


     PseudoPot. # 1 for B  read from file:
     /home/mehlhorn/pseudos/b_pbesol_v1.4.uspp.F.UPF
     MD5 check sum: 369b69bef2c3aeed4453bd8b804fd6a8
     Pseudo is Ultrasoft + core correction, Zval =  3.0
     Generated by new atomic code, or converted to UPF format
     Using radial grid of  781 points,  4 beta functions with: 
                l(1) =   0
                l(2) =   0
                l(3) =   1
                l(4) =   1
     Q(r) pseudized with  8 coefficients,  rinner =    1.100   1.100   1.100


     PseudoPot. # 2 for Ba read from file:
     /home/mehlhorn/pseudos/Ba.nc.z_10.oncvpsp4.dojo.v4-sp.upf
     MD5 check sum: c10ed334bb677c0554edec7181ce9143
     Pseudo is Norm-conserving + core correction, Zval = 10.0
     Generated using ONCVPSP code by D. R. Hamann
     Using radial grid of 1938 points,  8 beta functions with: 
                l(1) =   0
                l(2) =   0
                l(3) =   1
                l(4) =   1
                l(5) =   2
                l(6) =   2
                l(7) =   3
                l(8) =   3

     PseudoPot. # 3 for H  read from file:
     /home/mehlhorn/pseudos/H_ONCV_PBEsol-1.0.upf
     MD5 check sum: 398ef8f67c0a7342c05c87c5e19ea467
     Pseudo is Norm-conserving, Zval =  1.0
     Generated using ONCVPSP code by D. R. Hamann
     Using radial grid of 1180 points,  2 beta functions with: 
                l(1) =   0
                l(2) =   0

     atomic species   valence    mass     pseudopotential
     B                 3.00    10.81100     B ( 1.00)
     Ba               10.00   137.32700     Ba( 1.00)
     H                 1.00     1.00794     H ( 1.00)

      4 Sym. Ops. (no inversion) found ( 2 have fractional translation)



   Cartesian axes

     site n.     atom                  positions (alat units)
         1        Ba     tau(   1) = (   0.5000000   0.4943209   0.3129269  )
         2        Ba     tau(   2) = (   0.0000000   0.0000000   0.6258110  )
         3        B      tau(   3) = (   0.6506416   0.2739151   0.0000135  )
         4        B      tau(   4) = (   0.3493584   0.7147268   0.0000135  )
         5        B      tau(   5) = (   0.1506416   0.2204059   0.3128991  )
         6        B      tau(   6) = (   0.8493584   0.7682360   0.3128991  )
         7        H      tau(   7) = (   0.4819832   0.2783418   0.0000138  )
         8        H      tau(   8) = (   0.5180168   0.7103001   0.0000138  )
         9        H      tau(   9) = (   0.9819832   0.2159792   0.3128988  )
        10        H      tau(  10) = (   0.0180168   0.7726627   0.3128988  )
        11        H      tau(  11) = (   0.7124279   0.4312567   0.0000147  )
        12        H      tau(  12) = (   0.2875721   0.5573851   0.0000147  )
        13        H      tau(  13) = (   0.2124279   0.0630642   0.3128979  )
        14        H      tau(  14) = (   0.7875721   0.9255777   0.3128979  )
        15        H      tau(  15) = (   0.7007933   0.1949551   0.4861041  )
        16        H      tau(  16) = (   0.2992067   0.7936867   0.4861041  )
        17        H      tau(  17) = (   0.2007933   0.2993658   0.4526338  )
        18        H      tau(  18) = (   0.7992067   0.6892760   0.4526338  )
        19        H      tau(  19) = (   0.2991845   0.7936807   0.1397434  )
        20        H      tau(  20) = (   0.7008155   0.1949611   0.1397434  )
        21        H      tau(  21) = (   0.7991845   0.6892821   0.1731692  )
        22        H      tau(  22) = (   0.2008155   0.2993598   0.1731692  )

     number of k points=    27
                       cart. coord. in units 2pi/alat
        k(    1) = (   0.0000000   0.0000000   0.0000000), wk =   0.0160000
        k(    2) = (   0.0000000   0.0000000   0.3195780), wk =   0.0320000
        k(    3) = (   0.0000000   0.0000000   0.6391560), wk =   0.0320000
        k(    4) = (   0.0000000   0.2022977   0.0000000), wk =   0.0320000
        k(    5) = (   0.0000000   0.2022977   0.3195780), wk =   0.0640000
        k(    6) = (   0.0000000   0.2022977   0.6391560), wk =   0.0640000
        k(    7) = (   0.0000000   0.4045955   0.0000000), wk =   0.0320000
        k(    8) = (   0.0000000   0.4045955   0.3195780), wk =   0.0640000
        k(    9) = (   0.0000000   0.4045955   0.6391560), wk =   0.0640000
        k(   10) = (   0.2000000   0.0000000   0.0000000), wk =   0.0320000
        k(   11) = (   0.2000000   0.0000000   0.3195780), wk =   0.0640000
        k(   12) = (   0.2000000   0.0000000   0.6391560), wk =   0.0640000
        k(   13) = (   0.2000000   0.2022977   0.0000000), wk =   0.0640000
        k(   14) = (   0.2000000   0.2022977   0.3195780), wk =   0.1280000
        k(   15) = (   0.2000000   0.2022977   0.6391560), wk =   0.1280000
        k(   16) = (   0.2000000   0.4045955   0.0000000), wk =   0.0640000
        k(   17) = (   0.2000000   0.4045955   0.3195780), wk =   0.1280000
        k(   18) = (   0.2000000   0.4045955   0.6391560), wk =   0.1280000
        k(   19) = (   0.4000000   0.0000000   0.0000000), wk =   0.0320000
        k(   20) = (   0.4000000   0.0000000   0.3195780), wk =   0.0640000
        k(   21) = (   0.4000000   0.0000000   0.6391560), wk =   0.0640000
        k(   22) = (   0.4000000   0.2022977   0.0000000), wk =   0.0640000
        k(   23) = (   0.4000000   0.2022977   0.3195780), wk =   0.1280000
        k(   24) = (   0.4000000   0.2022977   0.6391560), wk =   0.1280000
        k(   25) = (   0.4000000   0.4045955   0.0000000), wk =   0.0640000
        k(   26) = (   0.4000000   0.4045955   0.3195780), wk =   0.1280000
        k(   27) = (   0.4000000   0.4045955   0.6391560), wk =   0.1280000

     Dense  grid:   624371 G-vectors     FFT dimensions: ( 128, 128,  80)

     Smooth grid:   220763 G-vectors     FFT dimensions: (  90,  90,  60)

     Estimated max dynamical RAM per process >      73.74 MB

     Estimated total dynamical RAM >       1.73 GB

     Initial potential from superposition of free atoms

     starting charge      47.9682, renormalised to      48.0000
     Starting wfcs are   42 randomized atomic wfcs

     total cpu time spent up to now is       12.5 secs

     Self-consistent Calculation

     iteration #  1     ecut=   100.00 Ry     beta= 0.70
     Davidson diagonalization with overlap
     ethr =  1.00E-02,  avg # of iterations =  2.0

     total cpu time spent up to now is       30.8 secs

     total energy              =    -155.90951503 Ry
     estimated scf accuracy    <       2.17420141 Ry

     iteration #  2     ecut=   100.00 Ry     beta= 0.70
     Davidson diagonalization with overlap
     ethr =  4.53E-03,  avg # of iterations =  2.0

     total cpu time spent up to now is       48.4 secs

     total energy              =    -156.40016834 Ry
     estimated scf accuracy    <       0.37318271 Ry

     iteration #  3     ecut=   100.00 Ry     beta= 0.70
     Davidson diagonalization with overlap
     ethr =  7.77E-04,  avg # of iterations =  2.0

     total cpu time spent up to now is       66.0 secs

     total energy              =    -156.46348325 Ry
     estimated scf accuracy    <       0.00489358 Ry

     iteration #  4     ecut=   100.00 Ry     beta= 0.70
     Davidson diagonalization with overlap
     ethr =  1.02E-05,  avg # of iterations =  5.2

     total cpu time spent up to now is       91.6 secs

     total energy              =    -156.46655635 Ry
     estimated scf accuracy    <       0.00182136 Ry

     iteration #  5     ecut=   100.00 Ry     beta= 0.70
     Davidson diagonalization with overlap
     ethr =  3.79E-06,  avg # of iterations =  3.6

     total cpu time spent up to now is      110.0 secs

     total energy              =    -156.46719197 Ry
     estimated scf accuracy    <       0.00022087 Ry

     iteration #  6     ecut=   100.00 Ry     beta= 0.70
     Davidson diagonalization with overlap
     ethr =  4.60E-07,  avg # of iterations =  4.0

     total cpu time spent up to now is      129.8 secs

     total energy              =    -156.46727171 Ry
     estimated scf accuracy    <       0.00000267 Ry

     iteration #  7     ecut=   100.00 Ry     beta= 0.70
     Davidson diagonalization with overlap
     ethr =  5.57E-09,  avg # of iterations =  8.9

     total cpu time spent up to now is      170.2 secs

     total energy              =    -156.46728535 Ry
     estimated scf accuracy    <       0.00000091 Ry

     iteration #  8     ecut=   100.00 Ry     beta= 0.70
     Davidson diagonalization with overlap
     ethr =  1.89E-09,  avg # of iterations =  3.4

     total cpu time spent up to now is      186.5 secs

     total energy              =    -156.46728539 Ry
     estimated scf accuracy    <       0.00000015 Ry

     iteration #  9     ecut=   100.00 Ry     beta= 0.70
     Davidson diagonalization with overlap
     ethr =  3.11E-10,  avg # of iterations =  4.4

     total cpu time spent up to now is      207.6 secs

     total energy              =    -156.46728545 Ry
     estimated scf accuracy    <       0.00000004 Ry

     iteration # 10     ecut=   100.00 Ry     beta= 0.70
     Davidson diagonalization with overlap
     ethr =  9.00E-11,  avg # of iterations =  3.0

     total cpu time spent up to now is      225.8 secs

     total energy              =    -156.46728546 Ry
     estimated scf accuracy    <          3.4E-10 Ry

     iteration # 11     ecut=   100.00 Ry     beta= 0.70
     Davidson diagonalization with overlap
     ethr =  7.18E-13,  avg # of iterations =  8.2

     total cpu time spent up to now is      265.3 secs

     total energy              =    -156.46728546 Ry
     estimated scf accuracy    <          2.3E-10 Ry

     iteration # 12     ecut=   100.00 Ry     beta= 0.70
     Davidson diagonalization with overlap
     ethr =  4.86E-13,  avg # of iterations =  2.7

     total cpu time spent up to now is      284.4 secs

     End of self-consistent calculation

          k = 0.0000 0.0000 0.0000 ( 27547 PWs)   bands (ev):

   -24.8759 -24.8713 -10.3628 -10.3402 -10.1338 -10.1139 -10.0376  -9.9952
    -6.7247  -5.9369  -5.4217  -5.3923  -2.5156  -1.4858  -1.3760  -1.2777
    -1.1822  -0.9955  -0.9748  -0.7035  -0.4711  -0.3095  -0.1927  -0.1718

          k = 0.0000 0.0000 0.3196 ( 27557 PWs)   bands (ev):

   -24.8703 -24.8666 -10.3025 -10.2841 -10.2327 -10.2111 -10.1198 -10.1041
    -6.3758  -5.7099  -5.5483  -5.5250  -2.2117  -1.8780  -1.7454  -1.2539
    -1.0751  -1.0306  -0.7953  -0.6434  -0.5392  -0.3695  -0.3294  -0.2777

          k = 0.0000 0.0000 0.6392 ( 27608 PWs)   bands (ev):

   -24.8607 -24.8593 -10.5085 -10.5048 -10.1815 -10.1720 -10.1134 -10.1053
    -5.7614  -5.7531  -5.7425  -5.4582  -2.1261  -2.0687  -1.8950  -1.6317
    -1.0865  -0.9336  -0.7377  -0.5840  -0.5105  -0.4803  -0.4053  -0.3679

          k = 0.0000 0.2023 0.0000 ( 27569 PWs)   bands (ev):

   -24.8755 -24.8718 -10.3489 -10.3259 -10.1530 -10.1317 -10.0335  -9.9993
    -6.6361  -5.9571  -5.5017  -5.4248  -2.3716  -1.6393  -1.4408  -1.0716
    -1.0156  -0.9874  -0.9644  -0.6992  -0.5051  -0.4464  -0.2787  -0.2373

          k = 0.0000 0.2023 0.3196 ( 27552 PWs)   bands (ev):

   -24.8699 -24.8669 -10.3000 -10.2715 -10.2260 -10.2237 -10.1217 -10.1150
    -6.3072  -5.7120  -5.6235  -5.5440  -2.1196  -1.8986  -1.7463  -1.1449
    -1.0552  -1.0043  -0.9206  -0.6159  -0.5256  -0.3993  -0.3594  -0.3401

          k = 0.0000 0.2023 0.6392 ( 27613 PWs)   bands (ev):

   -24.8606 -24.8594 -10.5132 -10.5099 -10.1713 -10.1658 -10.1136 -10.1089
    -5.8883  -5.8362  -5.5795  -5.4059  -2.1843  -2.1799  -1.7749  -1.5692
    -1.0178  -0.8451  -0.7529  -0.5849  -0.5436  -0.5268  -0.4253  -0.4111

          k = 0.0000 0.4046 0.0000 ( 27614 PWs)   bands (ev):

   -24.8743 -24.8729 -10.3149 -10.2999 -10.1867 -10.1721 -10.0229 -10.0098
    -6.4011  -6.1162  -5.5642  -5.5030  -2.0892  -1.8562  -1.2943  -0.9681
    -0.9548  -0.9112  -0.7931  -0.7322  -0.6650  -0.5865  -0.4158  -0.3959

          k = 0.0000 0.4046 0.3196 ( 27598 PWs)   bands (ev):

   -24.8690 -24.8678 -10.2865 -10.2598 -10.2383 -10.2160 -10.1331 -10.1301
    -6.1218  -5.8782  -5.6394  -5.5904  -1.9933  -1.9415  -1.5917  -1.2659
    -0.9798  -0.9414  -0.8752  -0.6783  -0.5428  -0.5349  -0.3846  -0.3703

          k = 0.0000 0.4046 0.6392 ( 27578 PWs)   bands (ev):

   -24.8602 -24.8598 -10.5198 -10.5184 -10.1537 -10.1536 -10.1162 -10.1161
    -5.9574  -5.9339  -5.4374  -5.3731  -2.2784  -2.2695  -1.5988  -1.5056
    -0.8853  -0.7645  -0.7107  -0.6995  -0.5996  -0.5547  -0.4755  -0.4517

          k = 0.2000 0.0000 0.0000 ( 27596 PWs)   bands (ev):

   -24.8755 -24.8718 -10.3467 -10.3274 -10.1511 -10.1345 -10.0335  -9.9993
    -6.6388  -5.9732  -5.4575  -5.4432  -2.3808  -1.5061  -1.4222  -1.2740
    -0.9736  -0.9711  -0.9629  -0.7104  -0.5145  -0.4120  -0.3216  -0.2470

          k = 0.2000 0.0000 0.3196 ( 27579 PWs)   bands (ev):

   -24.8699 -24.8669 -10.2889 -10.2852 -10.2244 -10.2227 -10.1289 -10.1084
    -6.3062  -5.7288  -5.5853  -5.5621  -2.1243  -1.8389  -1.7840  -1.1607
    -1.0608  -1.0077  -0.8978  -0.6075  -0.6067  -0.3805  -0.3581  -0.3220

          k = 0.2000 0.0000 0.6392 ( 27582 PWs)   bands (ev):

   -24.8606 -24.8594 -10.5137 -10.5104 -10.1746 -10.1626 -10.1165 -10.1059
    -5.8641  -5.8109  -5.6090  -5.4226  -2.2579  -2.1770  -1.7509  -1.5304
    -0.9826  -0.8775  -0.7676  -0.6126  -0.5069  -0.4983  -0.4458  -0.3991

          k = 0.2000 0.2023 0.0000 ( 27586 PWs)   bands (ev):

   -24.8751 -24.8721 -10.3579 -10.3021 -10.1838 -10.1200 -10.0302 -10.0025
    -6.5730  -6.0101  -5.5326  -5.4255  -2.2681  -1.6402  -1.4408  -1.1250
    -0.9993  -0.9411  -0.8240  -0.6978  -0.5977  -0.5247  -0.4059  -0.2171

          k = 0.2000 0.2023 0.3196 ( 27572 PWs)   bands (ev):

   -24.8696 -24.8672 -10.2990 -10.2658 -10.2433 -10.2113 -10.1328 -10.1083
    -6.2517  -5.7585  -5.6381  -5.5522  -2.0585  -1.8717  -1.7696  -1.1236
    -1.0780  -1.0050  -0.8726  -0.6295  -0.5887  -0.4057  -0.4025  -0.3155

          k = 0.2000 0.2023 0.6392 ( 27605 PWs)   bands (ev):

   -24.8604 -24.8595 -10.5181 -10.5080 -10.1794 -10.1523 -10.1176 -10.1077
    -5.9297  -5.7752  -5.6079  -5.3910  -2.2998  -2.1537  -1.7561  -1.5670
    -0.8761  -0.8341  -0.7595  -0.5973  -0.5878  -0.5089  -0.4798  -0.3546

          k = 0.2000 0.4046 0.0000 ( 27581 PWs)   bands (ev):

   -24.8742 -24.8730 -10.3456 -10.3108 -10.1770 -10.1369 -10.0216 -10.0111
    -6.3947  -6.1680  -5.5440  -5.4778  -2.0363  -1.8305  -1.3331  -1.0040
    -0.9979  -0.9648  -0.8379  -0.6409  -0.6395  -0.5675  -0.4904  -0.3187

          k = 0.2000 0.4046 0.3196 ( 27588 PWs)   bands (ev):

   -24.8689 -24.8680 -10.2953 -10.2736 -10.2368 -10.2119 -10.1302 -10.1158
    -6.1045  -5.9119  -5.6286  -5.5839  -1.9678  -1.9228  -1.6351  -1.3634
    -0.9686  -0.8912  -0.8504  -0.6764  -0.5400  -0.4658  -0.4171  -0.3778

          k = 0.2000 0.4046 0.6392 ( 27594 PWs)   bands (ev):

   -24.8602 -24.8598 -10.5179 -10.5118 -10.1715 -10.1551 -10.1155 -10.1104
    -5.9410  -5.8713  -5.4888  -5.3983  -2.3022  -2.2235  -1.6908  -1.6062
    -0.8560  -0.7813  -0.6830  -0.6071  -0.5830  -0.5218  -0.4753  -0.3911

          k = 0.4000 0.0000 0.0000 ( 27586 PWs)   bands (ev):

   -24.8743 -24.8729 -10.3100 -10.3007 -10.1857 -10.1778 -10.0230 -10.0099
    -6.4131  -6.1421  -5.5200  -5.4923  -2.0859  -1.7849  -1.1869  -1.0286
    -0.9363  -0.9310  -0.8703  -0.7334  -0.6984  -0.6155  -0.5037  -0.3879

          k = 0.4000 0.0000 0.3196 ( 27600 PWs)   bands (ev):

   -24.8690 -24.8678 -10.2767 -10.2564 -10.2511 -10.2220 -10.1367 -10.1223
    -6.1201  -5.8836  -5.6212  -5.5944  -1.9816  -1.8743  -1.6326  -1.2822
    -0.9775  -0.9210  -0.9179  -0.7590  -0.5482  -0.4774  -0.3934  -0.3851

          k = 0.4000 0.0000 0.6392 ( 27598 PWs)   bands (ev):

   -24.8602 -24.8598 -10.5210 -10.5196 -10.1594 -10.1504 -10.1191 -10.1108
    -5.9148  -5.8913  -5.4783  -5.4085  -2.3616  -2.3227  -1.5531  -1.4426
    -0.8445  -0.8055  -0.6888  -0.6867  -0.6434  -0.4966  -0.4670  -0.4576

          k = 0.4000 0.2023 0.0000 ( 27608 PWs)   bands (ev):

   -24.8742 -24.8730 -10.3445 -10.3097 -10.1782 -10.1381 -10.0217 -10.0111
    -6.4022  -6.1817  -5.5234  -5.4666  -2.0321  -1.7889  -1.2884  -1.0036
    -0.9846  -0.9493  -0.9025  -0.7142  -0.6573  -0.5828  -0.4958  -0.3235

          k = 0.4000 0.2023 0.3196 ( 27604 PWs)   bands (ev):

   -24.8689 -24.8680 -10.2923 -10.2714 -10.2421 -10.2151 -10.1297 -10.1137
    -6.1036  -5.9141  -5.6211  -5.5836  -1.9579  -1.8718  -1.6752  -1.3826
    -0.9438  -0.9046  -0.8568  -0.6973  -0.5528  -0.4759  -0.4168  -0.3731

          k = 0.4000 0.2023 0.6392 ( 27592 PWs)   bands (ev):

   -24.8602 -24.8598 -10.5186 -10.5126 -10.1724 -10.1556 -10.1153 -10.1091
    -5.9150  -5.8351  -5.5225  -5.4211  -2.3472  -2.2786  -1.6371  -1.5703
    -0.8322  -0.7891  -0.6853  -0.6610  -0.5851  -0.5064  -0.4471  -0.3667

          k = 0.4000 0.4046 0.0000 ( 27626 PWs)   bands (ev):

   -24.8738 -24.8734 -10.3642 -10.3489 -10.1351 -10.1165 -10.0183 -10.0143
    -6.3578  -6.2731  -5.4927  -5.4609  -1.9125  -1.8156  -1.3562  -1.2058
    -1.0192  -1.0023  -0.8010  -0.6713  -0.5856  -0.5553  -0.4188  -0.3168

          k = 0.4000 0.4046 0.3196 ( 27579 PWs)   bands (ev):

   -24.8686 -24.8682 -10.3041 -10.2959 -10.2272 -10.2163 -10.1136 -10.1060
    -6.0556  -5.9843  -5.6036  -5.5839  -1.9125  -1.8741  -1.6907  -1.5635
    -0.8936  -0.8595  -0.7524  -0.6642  -0.5302  -0.5100  -0.4271  -0.3622

          k = 0.4000 0.4046 0.6392 ( 27593 PWs)   bands (ev):

   -24.8600 -24.8599 -10.5097 -10.5058 -10.1823 -10.1734 -10.1098 -10.1081
    -5.8608  -5.7980  -5.5530  -5.4831  -2.2775  -2.2207  -1.7963  -1.7416
    -0.8370  -0.8057  -0.6263  -0.6004  -0.5111  -0.4934  -0.3725  -0.3207

     highest occupied level (ev):    -0.1718

!    total energy              =    -156.46728546 Ry
     estimated scf accuracy    <          1.0E-11 Ry

     The total energy is the sum of the following terms:
     one-electron contribution =     -40.83122808 Ry
     hartree contribution      =      33.10772267 Ry
     xc contribution           =     -49.07018234 Ry
     ewald contribution        =     -99.67359770 Ry

     convergence has been achieved in  12 iterations

     Writing all to output data dir ./pwscf.save/ :
     XML data file, charge density, pseudopotentials, collected wavefunctions

     init_run     :     10.94s CPU     12.08s WALL (       1 calls)
     electrons    :    270.12s CPU    272.05s WALL (       1 calls)

     Called by init_run:
     wfcinit      :      8.51s CPU      8.58s WALL (       1 calls)
     potinit      :      0.59s CPU      1.05s WALL (       1 calls)
     hinit0       :      0.81s CPU      1.37s WALL (       1 calls)

     Called by electrons:
     c_bands      :    241.04s CPU    242.45s WALL (      12 calls)
     sum_band     :     24.68s CPU     25.00s WALL (      12 calls)
     v_of_rho     :      1.70s CPU      1.77s WALL (      13 calls)
     newd         :      2.60s CPU      2.63s WALL (      13 calls)
     mix_rho      :      0.26s CPU      0.28s WALL (      12 calls)

     Called by c_bands:
     init_us_2    :      4.96s CPU      5.03s WALL (     675 calls)
     cegterg      :    218.08s CPU    219.40s WALL (     324 calls)

     Called by *egterg:
     cdiaghg      :      3.15s CPU      3.17s WALL (    1654 calls)
     h_psi        :    156.39s CPU    157.50s WALL (    1681 calls)
     s_psi        :     30.40s CPU     30.52s WALL (    1681 calls)
     g_psi        :      0.58s CPU      0.58s WALL (    1330 calls)

     Called by h_psi:
     h_psi:calbec :     27.17s CPU     27.30s WALL (    1681 calls)
     vloc_psi     :     98.10s CPU     99.01s WALL (    1681 calls)
     add_vuspsi   :     30.63s CPU     30.72s WALL (    1681 calls)

     General routines
     calbec       :     34.36s CPU     34.53s WALL (    2005 calls)
     fft          :      1.62s CPU      2.22s WALL (     167 calls)
     ffts         :      0.48s CPU      0.93s WALL (      25 calls)
     fftw         :     96.59s CPU     97.45s WALL (   65508 calls)
     interpolate  :      0.54s CPU      0.99s WALL (      13 calls)

     Parallel routines

     PWSCF        :   4m42.00s CPU   4m45.87s WALL


   This run was terminated on:  11:17:40  12Aug2024            

=------------------------------------------------------------------------------=
   JOB DONE.
=------------------------------------------------------------------------------=
