
     Program PWSCF v.7.3.1 starts on 11Jul2024 at 15:30:39 

     This program is part of the open-source Quantum ESPRESSO suite
     for quantum simulation of materials; please cite
         "P. Giannozzi et al., J. Phys.:Condens. Matter 21 395502 (2009);
         "P. Giannozzi et al., J. Phys.:Condens. Matter 29 465901 (2017);
         "P. Giannozzi et al., J. Chem. Phys. 152 154105 (2020);
          URL http://www.quantum-espresso.org", 
     in publications or presentations arising from this work. More details at
     http://www.quantum-espresso.org/quote

     Parallel version (MPI), running on    24 processors

     MPI processes distributed on     1 nodes
     82609 MiB available memory on the printing compute node when the environment starts

     Waiting for input...
     Reading input from standard input

     Current dimensions of program PWSCF are:
     Max number of different atomic species (ntypx) = 10
     Max number of k-points (npk) =  40000
     Max angular momentum in pseudopotentials (lmaxx) =  4

     R & G space division:  proc/nbgrp/npool/nimage =      24
     Subspace diagonalization in iterative solution of the eigenvalue problem:
     a serial algorithm will be used


     Parallelization info
     --------------------
     sticks:   dense  smooth     PW     G-vecs:    dense   smooth      PW
     Min         440     220     60                23288     8230    1188
     Max         442     221     61                23289     8232    1191
     Sum       10575    5283   1457               558925   197543   28565

     Using Slab Decomposition


     Title: 
     volume variation                                                           


     bravais-lattice index     =            8
     lattice parameter (alat)  =      12.7235  a.u.
     unit-cell volume          =    1462.6445 (a.u.)^3
     number of atoms/cell      =           22
     number of atomic types    =            3
     number of electrons       =        48.00
     number of Kohn-Sham states=           24
     kinetic-energy cutoff     =     100.0000  Ry
     charge density cutoff     =     800.0000  Ry
     scf convergence threshold =      1.0E-10
     mixing beta               =       0.7000
     number of iterations used =            8  plain     mixing
     energy convergence thresh.=      1.0E-05
     force convergence thresh. =      1.0E-05
     press convergence thresh. =      5.0E-01
     Exchange-correlation= PBESOL
                           (   1   4  10   8   0   0   0)
     nstep                     =          100


     celldm(1)=  12.723499  celldm(2)=   1.025571  celldm(3)=   0.692394
     celldm(4)=   0.000000  celldm(5)=   0.000000  celldm(6)=   0.000000

     crystal axes: (cart. coord. in units of alat)
               a(1) = (   1.000000   0.000000   0.000000 )  
               a(2) = (   0.000000   1.025571   0.000000 )  
               a(3) = (   0.000000   0.000000   0.692394 )  

     reciprocal axes: (cart. coord. in units 2 pi/alat)
               b(1) = (  1.000000  0.000000  0.000000 )  
               b(2) = (  0.000000  0.975067  0.000000 )  
               b(3) = (  0.000000  0.000000  1.444264 )  


     PseudoPot. # 1 for B  read from file:
     /home/mehlhorn/pseudos/b_pbesol_v1.4.uspp.F.UPF
     MD5 check sum: 369b69bef2c3aeed4453bd8b804fd6a8
     Pseudo is Ultrasoft + core correction, Zval =  3.0
     Generated by new atomic code, or converted to UPF format
     Using radial grid of  781 points,  4 beta functions with: 
                l(1) =   0
                l(2) =   0
                l(3) =   1
                l(4) =   1
     Q(r) pseudized with  8 coefficients,  rinner =    1.100   1.100   1.100


     PseudoPot. # 2 for Ba read from file:
     /home/mehlhorn/pseudos/Ba.nc.z_10.oncvpsp4.dojo.v4-sp.upf
     MD5 check sum: c10ed334bb677c0554edec7181ce9143
     Pseudo is Norm-conserving + core correction, Zval = 10.0
     Generated using ONCVPSP code by D. R. Hamann
     Using radial grid of 1938 points,  8 beta functions with: 
                l(1) =   0
                l(2) =   0
                l(3) =   1
                l(4) =   1
                l(5) =   2
                l(6) =   2
                l(7) =   3
                l(8) =   3

     PseudoPot. # 3 for H  read from file:
     /home/mehlhorn/pseudos/H_ONCV_PBEsol-1.0.upf
     MD5 check sum: 398ef8f67c0a7342c05c87c5e19ea467
     Pseudo is Norm-conserving, Zval =  1.0
     Generated using ONCVPSP code by D. R. Hamann
     Using radial grid of 1180 points,  2 beta functions with: 
                l(1) =   0
                l(2) =   0

     atomic species   valence    mass     pseudopotential
     B                 3.00    10.81100     B ( 1.00)
     Ba               10.00   137.32700     Ba( 1.00)
     H                 1.00     1.00794     H ( 1.00)

      4 Sym. Ops. (no inversion) found ( 2 have fractional translation)



   Cartesian axes

     site n.     atom                  positions (alat units)
         1        Ba     tau(   1) = (   0.5000000   0.5127855   0.3462657  )
         2        Ba     tau(   2) = (   0.0000000   0.0000000   0.6923255  )
         3        B      tau(   3) = (   0.6102570   0.2453190   0.0000455  )
         4        B      tau(   4) = (   0.3897430   0.7802519   0.0000455  )
         5        B      tau(   5) = (   0.1102570   0.2674665   0.3461516  )
         6        B      tau(   6) = (   0.8897430   0.7581045   0.3461516  )
         7        H      tau(   7) = (   0.4340973   0.2996264   0.0001599  )
         8        H      tau(   8) = (   0.5659027   0.7259445   0.0001599  )
         9        H      tau(   9) = (   0.9340973   0.2131590   0.3460372  )
        10        H      tau(  10) = (   0.0659027   0.8124119   0.3460372  )
        11        H      tau(  11) = (   0.7220603   0.3933629  -0.0000058  )
        12        H      tau(  12) = (   0.2779397   0.6322081  -0.0000058  )
        13        H      tau(  13) = (   0.2220603   0.1194226   0.3462029  )
        14        H      tau(  14) = (   0.7779397   0.9061483   0.3462029  )
        15        H      tau(  15) = (   0.6392499   0.1457279   0.5404125  )
        16        H      tau(  16) = (   0.3607501   0.8798430   0.5404125  )
        17        H      tau(  17) = (   0.1392499   0.3670576   0.4981787  )
        18        H      tau(  18) = (   0.8607501   0.6585133   0.4981787  )
        19        H      tau(  19) = (   0.3605328   0.8798946   0.1519977  )
        20        H      tau(  20) = (   0.6394672   0.1456763   0.1519977  )
        21        H      tau(  21) = (   0.8605328   0.6584617   0.1941994  )
        22        H      tau(  22) = (   0.1394672   0.3671092   0.1941994  )

     number of k points=    27
                       cart. coord. in units 2pi/alat
        k(    1) = (   0.0000000   0.0000000   0.0000000), wk =   0.0312500
        k(    2) = (   0.0000000   0.0000000   0.3610660), wk =   0.0625000
        k(    3) = (   0.0000000   0.0000000  -0.7221320), wk =   0.0312500
        k(    4) = (   0.0000000   0.2437667   0.0000000), wk =   0.0625000
        k(    5) = (   0.0000000   0.2437667   0.3610660), wk =   0.1250000
        k(    6) = (   0.0000000   0.2437667  -0.7221320), wk =   0.0625000
        k(    7) = (   0.0000000  -0.4875333   0.0000000), wk =   0.0312500
        k(    8) = (   0.0000000  -0.4875333   0.3610660), wk =   0.0625000
        k(    9) = (   0.0000000  -0.4875333  -0.7221320), wk =   0.0312500
        k(   10) = (   0.2500000   0.0000000   0.0000000), wk =   0.0625000
        k(   11) = (   0.2500000   0.0000000   0.3610660), wk =   0.1250000
        k(   12) = (   0.2500000   0.0000000  -0.7221320), wk =   0.0625000
        k(   13) = (   0.2500000   0.2437667   0.0000000), wk =   0.1250000
        k(   14) = (   0.2500000   0.2437667   0.3610660), wk =   0.2500000
        k(   15) = (   0.2500000   0.2437667  -0.7221320), wk =   0.1250000
        k(   16) = (   0.2500000  -0.4875333   0.0000000), wk =   0.0625000
        k(   17) = (   0.2500000  -0.4875333   0.3610660), wk =   0.1250000
        k(   18) = (   0.2500000  -0.4875333  -0.7221320), wk =   0.0625000
        k(   19) = (  -0.5000000   0.0000000   0.0000000), wk =   0.0312500
        k(   20) = (  -0.5000000   0.0000000   0.3610660), wk =   0.0625000
        k(   21) = (  -0.5000000   0.0000000  -0.7221320), wk =   0.0312500
        k(   22) = (  -0.5000000   0.2437667   0.0000000), wk =   0.0625000
        k(   23) = (  -0.5000000   0.2437667   0.3610660), wk =   0.1250000
        k(   24) = (  -0.5000000   0.2437667  -0.7221320), wk =   0.0625000
        k(   25) = (  -0.5000000  -0.4875333   0.0000000), wk =   0.0312500
        k(   26) = (  -0.5000000  -0.4875333   0.3610660), wk =   0.0625000
        k(   27) = (  -0.5000000  -0.4875333  -0.7221320), wk =   0.0312500

     Dense  grid:   558925 G-vectors     FFT dimensions: ( 120, 120,  80)

     Smooth grid:   197543 G-vectors     FFT dimensions: (  90,  90,  60)

     Estimated max dynamical RAM per process >      92.16 MB

     Estimated total dynamical RAM >       2.16 GB

     Initial potential from superposition of free atoms

     starting charge      47.9682, renormalised to      48.0000
     Starting wfcs are   42 randomized atomic wfcs

     total cpu time spent up to now is       12.8 secs

     Self-consistent Calculation

     iteration #  1     ecut=   100.00 Ry     beta= 0.70
     Davidson diagonalization with overlap
     ethr =  1.00E-02,  avg # of iterations =  2.0

     total cpu time spent up to now is       29.5 secs

     total energy              =    -155.94056347 Ry
     estimated scf accuracy    <       2.03146678 Ry

     iteration #  2     ecut=   100.00 Ry     beta= 0.70
     Davidson diagonalization with overlap
     ethr =  4.23E-03,  avg # of iterations =  2.0

     total cpu time spent up to now is       45.6 secs

     total energy              =    -156.40801354 Ry
     estimated scf accuracy    <       0.36778114 Ry

     iteration #  3     ecut=   100.00 Ry     beta= 0.70
     Davidson diagonalization with overlap
     ethr =  7.66E-04,  avg # of iterations =  2.0

     total cpu time spent up to now is       61.9 secs

     total energy              =    -156.46943143 Ry
     estimated scf accuracy    <       0.00480233 Ry

     iteration #  4     ecut=   100.00 Ry     beta= 0.70
     Davidson diagonalization with overlap
     ethr =  1.00E-05,  avg # of iterations =  5.1

     total cpu time spent up to now is       85.4 secs

     total energy              =    -156.47241163 Ry
     estimated scf accuracy    <       0.00173536 Ry

     iteration #  5     ecut=   100.00 Ry     beta= 0.70
     Davidson diagonalization with overlap
     ethr =  3.62E-06,  avg # of iterations =  3.1

     total cpu time spent up to now is      102.2 secs

     total energy              =    -156.47300957 Ry
     estimated scf accuracy    <       0.00017539 Ry

     iteration #  6     ecut=   100.00 Ry     beta= 0.70
     Davidson diagonalization with overlap
     ethr =  3.65E-07,  avg # of iterations =  3.9

     total cpu time spent up to now is      120.6 secs

     total energy              =    -156.47307317 Ry
     estimated scf accuracy    <       0.00000118 Ry

     iteration #  7     ecut=   100.00 Ry     beta= 0.70
     Davidson diagonalization with overlap
     ethr =  2.45E-09,  avg # of iterations =  9.4

     total cpu time spent up to now is      160.6 secs

     total energy              =    -156.47308342 Ry
     estimated scf accuracy    <       0.00000112 Ry

     iteration #  8     ecut=   100.00 Ry     beta= 0.70
     Davidson diagonalization with overlap
     ethr =  2.32E-09,  avg # of iterations =  2.0

     total cpu time spent up to now is      176.9 secs

     total energy              =    -156.47308364 Ry
     estimated scf accuracy    <       0.00000002 Ry

     iteration #  9     ecut=   100.00 Ry     beta= 0.70
     Davidson diagonalization with overlap
     ethr =  3.28E-11,  avg # of iterations =  6.1

     total cpu time spent up to now is      201.6 secs

     total energy              =    -156.47308366 Ry
     estimated scf accuracy    <          2.9E-09 Ry

     iteration # 10     ecut=   100.00 Ry     beta= 0.70
     Davidson diagonalization with overlap
     ethr =  5.98E-12,  avg # of iterations =  2.9

     total cpu time spent up to now is      219.8 secs

     total energy              =    -156.47308366 Ry
     estimated scf accuracy    <          1.9E-10 Ry

     iteration # 11     ecut=   100.00 Ry     beta= 0.70
     Davidson diagonalization with overlap
     ethr =  3.99E-13,  avg # of iterations =  5.3

     total cpu time spent up to now is      241.6 secs

     End of self-consistent calculation

          k = 0.0000 0.0000 0.0000 ( 24653 PWs)   bands (ev):

   -24.0230 -24.0148  -9.5405  -9.4580  -9.2740  -9.2377  -9.2067  -9.1467
    -6.0539  -5.1065  -4.4630  -4.3078  -1.7698  -0.8569  -0.8145  -0.4447
    -0.0723  -0.0622  -0.0237   0.1104   0.2701   0.6768   0.6974   0.7388

          k = 0.0000 0.0000 0.3611 ( 24714 PWs)   bands (ev):

   -24.0158 -24.0099  -9.4499  -9.4474  -9.4232  -9.3944  -9.2572  -9.2373
    -5.5668  -4.8589  -4.6250  -4.5247  -1.3983  -1.1423  -0.6834  -0.6254
    -0.4861  -0.3719  -0.0075   0.2776   0.4804   0.5113   0.5840   0.7345

          k = 0.0000 0.0000-0.7221 ( 24728 PWs)   bands (ev):

   -24.0067 -24.0067  -9.6564  -9.6562  -9.3128  -9.3127  -9.2671  -9.2671
    -4.8640  -4.8635  -4.7680  -4.7675  -1.1575  -1.1570  -1.1426  -1.1410
    -0.0821  -0.0814  -0.0260  -0.0241   0.5484   0.5485   0.5640   0.5645

          k = 0.0000 0.2438 0.0000 ( 24698 PWs)   bands (ev):

   -24.0218 -24.0160  -9.5124  -9.4290  -9.3240  -9.2710  -9.1977  -9.1553
    -5.8587  -5.0192  -4.7444  -4.4339  -1.4119  -0.9953  -0.9375  -0.1695
    -0.1620  -0.1327   0.1539   0.2712   0.3566   0.3604   0.5907   0.6688

          k = 0.0000 0.2438 0.3611 ( 24686 PWs)   bands (ev):

   -24.0149 -24.0107  -9.4917  -9.4531  -9.3790  -9.3679  -9.2655  -9.2580
    -5.4606  -4.9314  -4.6695  -4.5660  -1.2080  -1.1667  -0.9616  -0.4002
    -0.3549  -0.1597  -0.1495   0.3287   0.4101   0.4525   0.5578   0.6156

          k = 0.0000 0.2438-0.7221 ( 24714 PWs)   bands (ev):

   -24.0067 -24.0067  -9.6695  -9.6694  -9.2954  -9.2954  -9.2662  -9.2662
    -5.1270  -5.1270  -4.4951  -4.4951  -1.2730  -1.2723  -0.9717  -0.9710
    -0.0130  -0.0128   0.0190   0.0205   0.3794   0.3794   0.5590   0.5593

          k = 0.0000-0.4875 0.0000 ( 24714 PWs)   bands (ev):

   -24.0189 -24.0189  -9.4338  -9.4338  -9.3472  -9.3472  -9.1763  -9.1763
    -5.3672  -5.3672  -4.7140  -4.7140  -1.1153  -1.1153  -0.4742  -0.4742
    -0.2376  -0.2376   0.2704   0.2704   0.3951   0.3951   0.5245   0.5245

          k = 0.0000-0.4875 0.3611 ( 24732 PWs)   bands (ev):

   -24.0128 -24.0128  -9.4903  -9.4903  -9.3270  -9.3270  -9.2932  -9.2932
    -5.1950  -5.1950  -4.6435  -4.6435  -1.1491  -1.1491  -0.7338  -0.7338
    -0.1159  -0.1159   0.1662   0.1662   0.3243   0.3243   0.5351   0.5351

          k = 0.0000-0.4875-0.7221 ( 24672 PWs)   bands (ev):

   -24.0067 -24.0067  -9.6815  -9.6815  -9.2811  -9.2811  -9.2633  -9.2633
    -5.2515  -5.2515  -4.3610  -4.3610  -1.3617  -1.3617  -0.7340  -0.7340
    -0.0848  -0.0848   0.0959   0.0959   0.1884   0.1884   0.5960   0.5960

          k = 0.2500 0.0000 0.0000 ( 24639 PWs)   bands (ev):

   -24.0218 -24.0159  -9.5035  -9.4399  -9.3149  -9.2864  -9.1977  -9.1553
    -5.8670  -5.1448  -4.4993  -4.4593  -1.5798  -0.7235  -0.7221  -0.5738
    -0.0394  -0.0015   0.0658   0.1331   0.2299   0.2556   0.6437   0.6839

          k = 0.2500 0.0000 0.3611 ( 24716 PWs)   bands (ev):

   -24.0149 -24.0107  -9.4827  -9.4644  -9.4067  -9.3448  -9.2810  -9.2462
    -5.4195  -4.8487  -4.6551  -4.6534  -1.3682  -1.1195  -0.9726  -0.4510
    -0.4258  -0.1636   0.0687   0.2041   0.3365   0.4691   0.6610   0.6853

          k = 0.2500 0.0000-0.7221 ( 24710 PWs)   bands (ev):

   -24.0067 -24.0067  -9.6739  -9.6738  -9.3000  -9.3000  -9.2638  -9.2637
    -4.9280  -4.9276  -4.6743  -4.6740  -1.6219  -1.6214  -0.7083  -0.7078
    -0.0932  -0.0929   0.2254   0.2268   0.3550   0.3551   0.5993   0.5996

          k = 0.2500 0.2438 0.0000 ( 24684 PWs)   bands (ev):

   -24.0209 -24.0168  -9.5298  -9.4164  -9.3642  -9.2439  -9.1913  -9.1612
    -5.7252  -5.1048  -4.7341  -4.4979  -1.2926  -0.9626  -0.7391  -0.2804
    -0.2089  -0.1632   0.1402   0.2810   0.3025   0.3755   0.4535   0.5981

          k = 0.2500 0.2438 0.3611 ( 24696 PWs)   bands (ev):

   -24.0143 -24.0113  -9.4845  -9.4468  -9.4422  -9.3262  -9.2906  -9.2402
    -5.3303  -4.8814  -4.7535  -4.6444  -1.3289  -1.0835  -0.9937  -0.4398
    -0.2741  -0.1014   0.0037   0.2207   0.3200   0.4331   0.5808   0.6644

          k = 0.2500 0.2438-0.7221 ( 24706 PWs)   bands (ev):

   -24.0067 -24.0067  -9.6807  -9.6582  -9.3199  -9.2825  -9.2709  -9.2643
    -5.1338  -4.9623  -4.6330  -4.4570  -1.5978  -1.5204  -0.7743  -0.6781
    -0.1398  -0.1382   0.1968   0.2563   0.3763   0.4137   0.5461   0.5816

          k = 0.2500-0.4875 0.0000 ( 24698 PWs)   bands (ev):

   -24.0188 -24.0188  -9.5054  -9.5054  -9.2766  -9.2766  -9.1760  -9.1760
    -5.3632  -5.3632  -4.7093  -4.7093  -1.0172  -1.0172  -0.4852  -0.4852
    -0.2744  -0.2744   0.2018   0.2018   0.4315   0.4315   0.4587   0.4587

          k = 0.2500-0.4875 0.3611 ( 24700 PWs)   bands (ev):

   -24.0128 -24.0128  -9.4798  -9.4798  -9.3846  -9.3846  -9.2532  -9.2532
    -5.1071  -5.1071  -4.7135  -4.7135  -1.2359  -1.2359  -0.6667  -0.6667
    -0.1327  -0.1327   0.1894   0.1894   0.3309   0.3309   0.5534   0.5534

          k = 0.2500-0.4875-0.7221 ( 24716 PWs)   bands (ev):

   -24.0067 -24.0067  -9.6660  -9.6660  -9.3031  -9.3031  -9.2697  -9.2697
    -5.1466  -5.1466  -4.4374  -4.4374  -1.4879  -1.4879  -0.7907  -0.7907
    -0.0274  -0.0274   0.0981   0.0981   0.4018   0.4018   0.5693   0.5693

          k =-0.5000 0.0000 0.0000 ( 24692 PWs)   bands (ev):

   -24.0188 -24.0188  -9.4134  -9.4134  -9.3757  -9.3757  -9.1763  -9.1763
    -5.4431  -5.4431  -4.5580  -4.5580  -1.1594  -1.1594  -0.3649  -0.3649
    -0.0023  -0.0023   0.0211   0.0211   0.1148   0.1148   0.5360   0.5360

          k =-0.5000 0.0000 0.3611 ( 24692 PWs)   bands (ev):

   -24.0128 -24.0128  -9.4936  -9.4936  -9.3478  -9.3478  -9.2797  -9.2797
    -5.0730  -5.0730  -4.7162  -4.7162  -1.2888  -1.2888  -0.7252  -0.7252
    -0.1326  -0.1326   0.0578   0.0578   0.4321   0.4321   0.6466   0.6466

          k =-0.5000 0.0000-0.7221 ( 24764 PWs)   bands (ev):

   -24.0067 -24.0067  -9.6901  -9.6901  -9.2899  -9.2899  -9.2590  -9.2590
    -4.9647  -4.9647  -4.6053  -4.6053  -1.8326  -1.8326  -0.4225  -0.4225
    -0.1006  -0.1006   0.0709   0.0709   0.5380   0.5380   0.5625   0.5625

          k =-0.5000 0.2438 0.0000 ( 24654 PWs)   bands (ev):

   -24.0188 -24.0188  -9.5040  -9.5040  -9.2820  -9.2820  -9.1760  -9.1760
    -5.4054  -5.4054  -4.6272  -4.6272  -1.0510  -1.0510  -0.3711  -0.3711
    -0.2080  -0.2080  -0.0180  -0.0180   0.3424   0.3424   0.5141   0.5141

          k =-0.5000 0.2438 0.3611 ( 24712 PWs)   bands (ev):

   -24.0128 -24.0128  -9.4819  -9.4819  -9.3889  -9.3889  -9.2521  -9.2521
    -5.0282  -5.0282  -4.7674  -4.7674  -1.2930  -1.2930  -0.6993  -0.6993
    -0.0975  -0.0975   0.1054   0.1054   0.4248   0.4248   0.5777   0.5777

          k =-0.5000 0.2438-0.7221 ( 24708 PWs)   bands (ev):

   -24.0067 -24.0067  -9.6706  -9.6706  -9.3057  -9.3057  -9.2689  -9.2689
    -4.9882  -4.9882  -4.5744  -4.5744  -1.7330  -1.7330  -0.6272  -0.6272
    -0.0561  -0.0561   0.1400   0.1400   0.4812   0.4812   0.6187   0.6187

          k =-0.5000-0.4875 0.0000 ( 24600 PWs)   bands (ev):

   -24.0188 -24.0188  -9.5474  -9.5474  -9.2355  -9.2355  -9.1756  -9.1756
    -5.3611  -5.3611  -4.7018  -4.7018  -0.8945  -0.8945  -0.5245  -0.5245
    -0.3076  -0.3076   0.1740   0.1740   0.3547   0.3547   0.4644   0.4644

          k =-0.5000-0.4875 0.3611 ( 24680 PWs)   bands (ev):

   -24.0127 -24.0127  -9.4594  -9.4594  -9.4296  -9.4296  -9.2356  -9.2356
    -4.9520  -4.9520  -4.8498  -4.8498  -1.2792  -1.2792  -0.7412  -0.7412
     0.0532   0.0532   0.1947   0.1947   0.3379   0.3379   0.4797   0.4797

          k =-0.5000-0.4875-0.7221 ( 24720 PWs)   bands (ev):

   -24.0067 -24.0067  -9.6485  -9.6485  -9.3276  -9.3276  -9.2754  -9.2754
    -5.0093  -5.0093  -4.5456  -4.5456  -1.5792  -1.5792  -0.9151  -0.9151
     0.1647   0.1647   0.2127   0.2127   0.3575   0.3575   0.5853   0.5853

     highest occupied level (ev):     0.7388

!    total energy              =    -156.47308366 Ry
     estimated scf accuracy    <          3.8E-11 Ry

     The total energy is the sum of the following terms:
     one-electron contribution =     -22.80982453 Ry
     hartree contribution      =      25.58062390 Ry
     xc contribution           =     -49.01934120 Ry
     ewald contribution        =    -110.22454183 Ry

     convergence has been achieved in  11 iterations

     Forces acting on atoms (cartesian axes, Ry/au):

     atom    1 type  2   force =     0.00000000    0.00000000    0.00001189
     atom    2 type  2   force =     0.00000000    0.00000000   -0.00001189
     atom    3 type  1   force =     0.00015263    0.00075809   -0.00001357
     atom    4 type  1   force =    -0.00015263   -0.00075809   -0.00001357
     atom    5 type  1   force =     0.00015263   -0.00075809    0.00001357
     atom    6 type  1   force =    -0.00015263    0.00075809    0.00001357
     atom    7 type  3   force =     0.00653210   -0.00165762   -0.00001839
     atom    8 type  3   force =    -0.00653210    0.00165762   -0.00001839
     atom    9 type  3   force =     0.00653210    0.00165762    0.00001839
     atom   10 type  3   force =    -0.00653210   -0.00165762    0.00001839
     atom   11 type  3   force =    -0.00432012   -0.00521666    0.00000668
     atom   12 type  3   force =     0.00432012    0.00521666    0.00000668
     atom   13 type  3   force =    -0.00432012    0.00521666   -0.00000668
     atom   14 type  3   force =     0.00432012   -0.00521666   -0.00000668
     atom   15 type  3   force =    -0.00078597    0.00383419    0.00582771
     atom   16 type  3   force =     0.00078597   -0.00383419    0.00582771
     atom   17 type  3   force =    -0.00078597   -0.00383419   -0.00582771
     atom   18 type  3   force =     0.00078597    0.00383419   -0.00582771
     atom   19 type  3   force =     0.00083756   -0.00385390   -0.00583549
     atom   20 type  3   force =    -0.00083756    0.00385390   -0.00583549
     atom   21 type  3   force =     0.00083756    0.00385390    0.00583549
     atom   22 type  3   force =    -0.00083756   -0.00385390    0.00583549

     Total force =     0.027625     Total SCF correction =     0.000003


     Computing stress (Cartesian axis) and pressure

          total   stress  (Ry/bohr**3)                   (kbar)     P=      -14.45
  -0.00009143   0.00000000   0.00000000          -13.45        0.00        0.00
   0.00000000  -0.00009330   0.00000000            0.00      -13.73        0.00
   0.00000000   0.00000000  -0.00011000            0.00        0.00      -16.18

     Volume is kept fixed: isostatic pressure set to zero

     BFGS Geometry Optimization
     Energy error            =      0.0E+00 Ry
     Gradient error          =      6.5E-03 Ry/Bohr
     Cell gradient error     =      1.7E+00 kbar

     number of scf cycles    =   1
     number of bfgs steps    =   0

     enthalpy           new  =    -156.4730836598 Ry

     new trust radius        =       0.0070432274 bohr
ibrav =      8
 celldm(1) =     12.72566762
 celldm(2) =      1.02552282
 celldm(3) =      0.69207274
Input lattice vectors:
     1.00017043     0.00000000     0.00000000
     0.00000000     1.02569759     0.00000000
     0.00000000     0.00000000     0.69219069
New lattice vectors in INITIAL alat:
     1.00017043     0.00000000     0.00000000
     0.00000000     1.02569759     0.00000000
     0.00000000     0.00000000     0.69219069
New lattice vectors in NEW alat (for information only):
     1.00000000     0.00000000     0.00000000
     0.00000000     1.02552282     0.00000000
     0.00000000     0.00000000     0.69207274
Discrepancy in bohr =     0.000000    0.000000    0.000000
     new conv_thr            =            1.0E-10 Ry

     new unit-cell volume =   1462.64455 a.u.^3 (   216.74156 Ang^3 )
     density =      2.55909 g/cm^3

CELL_PARAMETERS (alat= 12.72349920)
   1.000170426   0.000000000   0.000000000
   0.000000000   1.025697592   0.000000000
   0.000000000   0.000000000   0.692190685

ATOMIC_POSITIONS (crystal)
Ba               0.5000000000        0.5000000000        0.5001005151
Ba               0.0000000000        0.0000000000        0.9998994849
B                0.6102690122        0.2392604767        0.0000641160
B                0.3897309878        0.7607395233        0.0000641160
B                0.1102690122        0.2607395233        0.4999358840
B                0.8897309878        0.7392604767        0.4999358840
H                0.4346106413        0.2920286973        0.0002288453
H                0.5653893587        0.7079713027        0.0002288453
H                0.9346106413        0.2079713027        0.4997711547
H                0.0653893587        0.7920286973        0.4997711547
H                0.7217207290        0.3831552300       -0.0000076130
H                0.2782792710        0.6168447700       -0.0000076130
H                0.2217207290        0.1168447700        0.5000076130
H                0.7782792710        0.8831552300        0.5000076130
H                0.6391881514        0.1423882282        0.7811599261
H                0.3608118486        0.8576117718        0.7811599261
H                0.1391881514        0.3576117718        0.7188400739
H                0.8608118486        0.6423882282        0.7188400739
H                0.3605986588        0.8576605704        0.2188624526
H                0.6394013412        0.1423394296        0.2188624526
H                0.8605986588        0.6423394296        0.2811375474
H                0.1394013412        0.3576605704        0.2811375474



     Writing config-only to output data dir ./pwscf.save/ :
     XML data file
     NEW-OLD atomic charge density approx. for the potential

     total cpu time spent up to now is      272.4 secs

     Self-consistent Calculation

     iteration #  1     ecut=   100.00 Ry     beta= 0.70
     Davidson diagonalization with overlap
     ethr =  1.00E-06,  avg # of iterations =  3.0

     total cpu time spent up to now is      291.6 secs

     total energy              =    -156.47366101 Ry
     estimated scf accuracy    <       0.00016711 Ry

     iteration #  2     ecut=   100.00 Ry     beta= 0.70
     Davidson diagonalization with overlap
     ethr =  3.48E-07,  avg # of iterations =  2.0

     total cpu time spent up to now is      307.6 secs

     total energy              =    -156.47370433 Ry
     estimated scf accuracy    <       0.00002759 Ry

     iteration #  3     ecut=   100.00 Ry     beta= 0.70
     Davidson diagonalization with overlap
     ethr =  5.75E-08,  avg # of iterations =  2.0

     total cpu time spent up to now is      323.6 secs

     total energy              =    -156.47370834 Ry
     estimated scf accuracy    <       0.00000026 Ry

     iteration #  4     ecut=   100.00 Ry     beta= 0.70
     Davidson diagonalization with overlap
     ethr =  5.47E-10,  avg # of iterations =  3.5

     total cpu time spent up to now is      343.4 secs

     total energy              =    -156.47370848 Ry
     estimated scf accuracy    <       0.00000021 Ry

     iteration #  5     ecut=   100.00 Ry     beta= 0.70
     Davidson diagonalization with overlap
     ethr =  4.38E-10,  avg # of iterations =  2.0

     total cpu time spent up to now is      359.4 secs

     total energy              =    -156.47370851 Ry
     estimated scf accuracy    <          4.9E-09 Ry

     iteration #  6     ecut=   100.00 Ry     beta= 0.70
     Davidson diagonalization with overlap
     ethr =  1.01E-11,  avg # of iterations =  5.2

     total cpu time spent up to now is      381.5 secs

     total energy              =    -156.47370851 Ry
     estimated scf accuracy    <          1.8E-09 Ry

     iteration #  7     ecut=   100.00 Ry     beta= 0.70
     Davidson diagonalization with overlap
     ethr =  3.84E-12,  avg # of iterations =  2.4

     total cpu time spent up to now is      397.8 secs

     End of self-consistent calculation

          k = 0.0000 0.0000 0.0000 ( 24653 PWs)   bands (ev):

   -24.0294 -24.0212  -9.5470  -9.4642  -9.2801  -9.2436  -9.2124  -9.1525
    -6.0663  -5.1267  -4.4823  -4.3284  -1.7694  -0.8648  -0.8182  -0.4568
    -0.0825  -0.0666  -0.0308   0.1005   0.2614   0.6626   0.6832   0.7237

          k = 0.0000 0.0000 0.3612 ( 24714 PWs)   bands (ev):

   -24.0221 -24.0163  -9.4562  -9.4538  -9.4297  -9.4004  -9.2632  -9.2432
    -5.5799  -4.8783  -4.6451  -4.5458  -1.3970  -1.1438  -0.6849  -0.6337
    -0.4935  -0.3797  -0.0177   0.2653   0.4673   0.4975   0.5719   0.7202

          k = 0.0000 0.0000-0.7223 ( 24728 PWs)   bands (ev):

   -24.0131 -24.0131  -9.6633  -9.6632  -9.3186  -9.3185  -9.2730  -9.2730
    -4.8805  -4.8800  -4.7892  -4.7887  -1.1578  -1.1573  -1.1425  -1.1409
    -0.0929  -0.0923  -0.0361  -0.0343   0.5351   0.5352   0.5503   0.5508

          k = 0.0000 0.2437 0.0000 ( 24698 PWs)   bands (ev):

   -24.0282 -24.0224  -9.5189  -9.4352  -9.3300  -9.2770  -9.2035  -9.1611
    -5.8717  -5.0395  -4.7615  -4.4544  -1.4140  -0.9990  -0.9434  -0.1786
    -0.1698  -0.1453   0.1458   0.2616   0.3441   0.3507   0.5767   0.6549

          k = 0.0000 0.2437 0.3612 ( 24686 PWs)   bands (ev):

   -24.0213 -24.0171  -9.4981  -9.4595  -9.3854  -9.3740  -9.2715  -9.2638
    -5.4745  -4.9503  -4.6887  -4.5866  -1.2081  -1.1680  -0.9645  -0.4066
    -0.3629  -0.1709  -0.1580   0.3165   0.3975   0.4393   0.5450   0.6023

          k = 0.0000 0.2437-0.7223 ( 24714 PWs)   bands (ev):

   -24.0131 -24.0131  -9.6765  -9.6763  -9.3011  -9.3011  -9.2722  -9.2722
    -5.1457  -5.1457  -4.5140  -4.5140  -1.2731  -1.2724  -0.9724  -0.9716
    -0.0239  -0.0237   0.0082   0.0098   0.3672   0.3672   0.5452   0.5455

          k = 0.0000-0.4875 0.0000 ( 24714 PWs)   bands (ev):

   -24.0253 -24.0253  -9.4403  -9.4403  -9.3531  -9.3531  -9.1821  -9.1821
    -5.3819  -5.3819  -4.7340  -4.7340  -1.1184  -1.1184  -0.4822  -0.4822
    -0.2457  -0.2457   0.2567   0.2567   0.3852   0.3852   0.5124   0.5124

          k = 0.0000-0.4875 0.3612 ( 24732 PWs)   bands (ev):

   -24.0192 -24.0192  -9.4967  -9.4967  -9.3334  -9.3334  -9.2990  -9.2990
    -5.2113  -5.2113  -4.6632  -4.6632  -1.1501  -1.1501  -0.7385  -0.7385
    -0.1258  -0.1258   0.1561   0.1561   0.3109   0.3109   0.5222   0.5222

          k = 0.0000-0.4875-0.7223 ( 24672 PWs)   bands (ev):

   -24.0131 -24.0131  -9.6884  -9.6884  -9.2868  -9.2868  -9.2693  -9.2693
    -5.2703  -5.2703  -4.3796  -4.3796  -1.3616  -1.3616  -0.7349  -0.7349
    -0.0964  -0.0964   0.0861   0.0861   0.1759   0.1759   0.5819   0.5819

          k = 0.2500 0.0000 0.0000 ( 24639 PWs)   bands (ev):

   -24.0282 -24.0223  -9.5101  -9.4460  -9.3210  -9.2923  -9.2035  -9.1611
    -5.8802  -5.1637  -4.5189  -4.4792  -1.5801  -0.7294  -0.7270  -0.5829
    -0.0471  -0.0112   0.0571   0.1228   0.2202   0.2439   0.6295   0.6687

          k = 0.2500 0.0000 0.3612 ( 24716 PWs)   bands (ev):

   -24.0212 -24.0171  -9.4890  -9.4709  -9.4130  -9.3510  -9.2870  -9.2521
    -5.4334  -4.8675  -4.6753  -4.6737  -1.3665  -1.1227  -0.9731  -0.4585
    -0.4349  -0.1724   0.0572   0.1927   0.3244   0.4568   0.6467   0.6721

          k = 0.2500 0.0000-0.7223 ( 24710 PWs)   bands (ev):

   -24.0131 -24.0131  -9.6808  -9.6807  -9.3058  -9.3058  -9.2697  -9.2697
    -4.9477  -4.9473  -4.6926  -4.6922  -1.6202  -1.6197  -0.7107  -0.7103
    -0.1040  -0.1037   0.2144   0.2158   0.3428   0.3429   0.5855   0.5858

          k = 0.2500 0.2437 0.0000 ( 24684 PWs)   bands (ev):

   -24.0273 -24.0232  -9.5362  -9.4228  -9.3701  -9.2499  -9.1970  -9.1670
    -5.7391  -5.1235  -4.7523  -4.5172  -1.2955  -0.9672  -0.7457  -0.2887
    -0.2168  -0.1713   0.1285   0.2713   0.2903   0.3653   0.4400   0.5850

          k = 0.2500 0.2437 0.3612 ( 24696 PWs)   bands (ev):

   -24.0206 -24.0177  -9.4909  -9.4532  -9.4484  -9.3326  -9.2964  -9.2461
    -5.3449  -4.9005  -4.7720  -4.6646  -1.3284  -1.0842  -0.9974  -0.4477
    -0.2827  -0.1108  -0.0072   0.2098   0.3075   0.4203   0.5675   0.6512

          k = 0.2500 0.2437-0.7223 ( 24706 PWs)   bands (ev):

   -24.0131 -24.0130  -9.6876  -9.6651  -9.3257  -9.2883  -9.2768  -9.2702
    -5.1532  -4.9814  -4.6518  -4.4755  -1.5961  -1.5187  -0.7775  -0.6805
    -0.1502  -0.1488   0.1864   0.2451   0.3635   0.4008   0.5331   0.5672

          k = 0.2500-0.4875 0.0000 ( 24698 PWs)   bands (ev):

   -24.0252 -24.0252  -9.5117  -9.5117  -9.2826  -9.2826  -9.1817  -9.1817
    -5.3791  -5.3791  -4.7279  -4.7279  -1.0219  -1.0219  -0.4931  -0.4931
    -0.2821  -0.2821   0.1908   0.1908   0.4211   0.4211   0.4456   0.4456

          k = 0.2500-0.4875 0.3612 ( 24700 PWs)   bands (ev):

   -24.0191 -24.0191  -9.4861  -9.4861  -9.3908  -9.3908  -9.2592  -9.2592
    -5.1238  -5.1238  -4.7327  -4.7327  -1.2362  -1.2362  -0.6729  -0.6729
    -0.1419  -0.1419   0.1782   0.1782   0.3186   0.3186   0.5405   0.5405

          k = 0.2500-0.4875-0.7223 ( 24716 PWs)   bands (ev):

   -24.0130 -24.0130  -9.6729  -9.6729  -9.3089  -9.3089  -9.2756  -9.2756
    -5.1657  -5.1657  -4.4561  -4.4561  -1.4863  -1.4863  -0.7937  -0.7937
    -0.0386  -0.0386   0.0881   0.0881   0.3888   0.3888   0.5556   0.5556

          k =-0.4999 0.0000 0.0000 ( 24692 PWs)   bands (ev):

   -24.0252 -24.0252  -9.4200  -9.4200  -9.3814  -9.3814  -9.1821  -9.1821
    -5.4584  -5.4584  -4.5780  -4.5780  -1.1614  -1.1614  -0.3726  -0.3726
    -0.0095  -0.0095   0.0090   0.0090   0.1042   0.1042   0.5218   0.5218

          k =-0.4999 0.0000 0.3612 ( 24692 PWs)   bands (ev):

   -24.0191 -24.0191  -9.4999  -9.4999  -9.3541  -9.3541  -9.2856  -9.2856
    -5.0889  -5.0889  -4.7366  -4.7366  -1.2881  -1.2881  -0.7306  -0.7306
    -0.1429  -0.1429   0.0468   0.0468   0.4201   0.4201   0.6327   0.6327

          k =-0.4999 0.0000-0.7223 ( 24764 PWs)   bands (ev):

   -24.0130 -24.0130  -9.6970  -9.6970  -9.2957  -9.2957  -9.2650  -9.2650
    -4.9853  -4.9853  -4.6229  -4.6229  -1.8300  -1.8300  -0.4259  -0.4259
    -0.1114  -0.1114   0.0596   0.0596   0.5260   0.5260   0.5482   0.5482

          k =-0.4999 0.2437 0.0000 ( 24654 PWs)   bands (ev):

   -24.0252 -24.0252  -9.5103  -9.5103  -9.2880  -9.2880  -9.1817  -9.1817
    -5.4215  -5.4215  -4.6459  -4.6459  -1.0553  -1.0553  -0.3787  -0.3787
    -0.2157  -0.2157  -0.0287  -0.0287   0.3321   0.3321   0.5003   0.5003

          k =-0.4999 0.2437 0.3612 ( 24712 PWs)   bands (ev):

   -24.0191 -24.0191  -9.4882  -9.4882  -9.3951  -9.3951  -9.2580  -9.2580
    -5.0447  -5.0447  -4.7871  -4.7871  -1.2927  -1.2927  -0.7053  -0.7053
    -0.1075  -0.1075   0.0944   0.0944   0.4125   0.4125   0.5647   0.5647

          k =-0.4999 0.2437-0.7223 ( 24708 PWs)   bands (ev):

   -24.0130 -24.0130  -9.6776  -9.6776  -9.3115  -9.3115  -9.2749  -9.2749
    -5.0083  -5.0083  -4.5925  -4.5925  -1.7305  -1.7305  -0.6309  -0.6309
    -0.0663  -0.0663   0.1284   0.1284   0.4686   0.4686   0.6051   0.6051

          k =-0.4999-0.4875 0.0000 ( 24600 PWs)   bands (ev):

   -24.0252 -24.0252  -9.5536  -9.5536  -9.2415  -9.2415  -9.1814  -9.1814
    -5.3781  -5.3781  -4.7191  -4.7191  -0.9025  -0.9025  -0.5298  -0.5298
    -0.3151  -0.3151   0.1627   0.1627   0.3426   0.3426   0.4536   0.4536

          k =-0.4999-0.4875 0.3612 ( 24680 PWs)   bands (ev):

   -24.0191 -24.0191  -9.4654  -9.4654  -9.4361  -9.4361  -9.2416  -9.2416
    -4.9695  -4.9695  -4.8683  -4.8683  -1.2793  -1.2793  -0.7477  -0.7477
     0.0435   0.0435   0.1821   0.1821   0.3259   0.3259   0.4684   0.4684

          k =-0.4999-0.4875-0.7223 ( 24720 PWs)   bands (ev):

   -24.0130 -24.0130  -9.6555  -9.6555  -9.3334  -9.3334  -9.2813  -9.2813
    -5.0289  -5.0289  -4.5643  -4.5643  -1.5766  -1.5766  -0.9185  -0.9185
     0.1531   0.1531   0.2000   0.2000   0.3460   0.3460   0.5725   0.5725

     highest occupied level (ev):     0.7237

!    total energy              =    -156.47370851 Ry
     estimated scf accuracy    <          2.6E-12 Ry

     The total energy is the sum of the following terms:
     one-electron contribution =     -23.01533364 Ry
     hartree contribution      =      25.68302741 Ry
     xc contribution           =     -49.04492135 Ry
     ewald contribution        =    -110.09648094 Ry

     convergence has been achieved in   7 iterations

     Forces acting on atoms (cartesian axes, Ry/au):

     atom    1 type  2   force =     0.00000000    0.00000000    0.00000985
     atom    2 type  2   force =     0.00000000    0.00000000   -0.00000985
     atom    3 type  1   force =     0.00020039    0.00083733   -0.00001102
     atom    4 type  1   force =    -0.00020039   -0.00083733   -0.00001102
     atom    5 type  1   force =     0.00020039   -0.00083733    0.00001102
     atom    6 type  1   force =    -0.00020039    0.00083733    0.00001102
     atom    7 type  3   force =     0.00415430   -0.00094952   -0.00001760
     atom    8 type  3   force =    -0.00415430    0.00094952   -0.00001760
     atom    9 type  3   force =     0.00415430    0.00094952    0.00001760
     atom   10 type  3   force =    -0.00415430   -0.00094952    0.00001760
     atom   11 type  3   force =    -0.00275026   -0.00311288    0.00000522
     atom   12 type  3   force =     0.00275026    0.00311288    0.00000522
     atom   13 type  3   force =    -0.00275026    0.00311288   -0.00000522
     atom   14 type  3   force =     0.00275026   -0.00311288   -0.00000522
     atom   15 type  3   force =    -0.00037445    0.00241462    0.00353336
     atom   16 type  3   force =     0.00037445   -0.00241462    0.00353336
     atom   17 type  3   force =    -0.00037445   -0.00241462   -0.00353336
     atom   18 type  3   force =     0.00037445    0.00241462   -0.00353336
     atom   19 type  3   force =     0.00042074   -0.00243190   -0.00354181
     atom   20 type  3   force =    -0.00042074    0.00243190   -0.00354181
     atom   21 type  3   force =     0.00042074    0.00243190    0.00354181
     atom   22 type  3   force =    -0.00042074   -0.00243190    0.00354181

     Total force =     0.017117     Total SCF correction =     0.000000


     Computing stress (Cartesian axis) and pressure

          total   stress  (Ry/bohr**3)                   (kbar)     P=      -11.33
  -0.00007189   0.00000000   0.00000000          -10.57        0.00        0.00
   0.00000000  -0.00007289   0.00000000            0.00      -10.72        0.00
   0.00000000   0.00000000  -0.00008626            0.00        0.00      -12.69

     Volume is kept fixed: isostatic pressure set to zero
     Energy error            =      6.2E-04 Ry
     Gradient error          =      4.2E-03 Ry/Bohr
     Cell gradient error     =      1.4E+00 kbar

     number of scf cycles    =   2
     number of bfgs steps    =   1

     enthalpy           old  =    -156.4730836598 Ry
     enthalpy           new  =    -156.4737085127 Ry

     CASE: enthalpy          _new < enthalpy          _old

     new trust radius        =       0.0105631261 bohr
ibrav =      8
 celldm(1) =     12.72965536
 celldm(2) =      1.02545988
 celldm(3) =      0.69146497
Input lattice vectors:
     1.00048384     0.00000000     0.00000000
     0.00000000     1.02595604     0.00000000
     0.00000000     0.00000000     0.69179953
New lattice vectors in INITIAL alat:
     1.00048384     0.00000000     0.00000000
     0.00000000     1.02595604     0.00000000
     0.00000000     0.00000000     0.69179953
New lattice vectors in NEW alat (for information only):
     1.00000000     0.00000000     0.00000000
     0.00000000     1.02545988     0.00000000
     0.00000000     0.00000000     0.69146497
Discrepancy in bohr =     0.000000    0.000000    0.000000
     new conv_thr            =            6.2E-11 Ry

     new unit-cell volume =   1462.64455 a.u.^3 (   216.74156 Ang^3 )
     density =      2.55909 g/cm^3

CELL_PARAMETERS (alat= 12.72349920)
   1.000483841   0.000000000   0.000000000
   0.000000000   1.025956039   0.000000000
   0.000000000   0.000000000   0.691799532

ATOMIC_POSITIONS (crystal)
Ba               0.5000000000        0.5000000000        0.5001032456
Ba               0.0000000000        0.0000000000        0.9998967544
B                0.6103074448        0.2394171371        0.0000610608
B                0.3896925552        0.7605828629        0.0000610608
B                0.1103074448        0.2605828629        0.4999389392
B                0.8896925552        0.7394171371        0.4999389392
H                0.4354097902        0.2918504882        0.0002239678
H                0.5645902098        0.7081495118        0.0002239678
H                0.9354097902        0.2081495118        0.4997760322
H                0.0645902098        0.7918504882        0.4997760322
H                0.7211916751        0.3825711486       -0.0000061638
H                0.2788083249        0.6174288514       -0.0000061638
H                0.2211916751        0.1174288514        0.5000061638
H                0.7788083249        0.8825711486        0.5000061638
H                0.6391159776        0.1428411445        0.7821414202
H                0.3608840224        0.8571588555        0.7821414202
H                0.1391159776        0.3571588555        0.7178585798
H                0.8608840224        0.6428411445        0.7178585798
H                0.3606797214        0.8572044193        0.2178786170
H                0.6393202786        0.1427955807        0.2178786170
H                0.8606797214        0.6427955807        0.2821213830
H                0.1393202786        0.3572044193        0.2821213830



     Writing config-only to output data dir ./pwscf.save/ :
     XML data file
     NEW-OLD atomic charge density approx. for the potential

     total cpu time spent up to now is      428.3 secs

     Self-consistent Calculation

     iteration #  1     ecut=   100.00 Ry     beta= 0.70
     Davidson diagonalization with overlap
     ethr =  1.00E-06,  avg # of iterations =  4.0

     total cpu time spent up to now is      449.9 secs

     total energy              =    -156.47397004 Ry
     estimated scf accuracy    <       0.00041613 Ry

     iteration #  2     ecut=   100.00 Ry     beta= 0.70
     Davidson diagonalization with overlap
     ethr =  8.67E-07,  avg # of iterations =  2.0

     total cpu time spent up to now is      466.0 secs

     total energy              =    -156.47408544 Ry
     estimated scf accuracy    <       0.00008208 Ry

     iteration #  3     ecut=   100.00 Ry     beta= 0.70
     Davidson diagonalization with overlap
     ethr =  1.71E-07,  avg # of iterations =  2.0

     total cpu time spent up to now is      482.1 secs

     total energy              =    -156.47409696 Ry
     estimated scf accuracy    <       0.00000089 Ry

     iteration #  4     ecut=   100.00 Ry     beta= 0.70
     Davidson diagonalization with overlap
     ethr =  1.85E-09,  avg # of iterations =  3.2

     total cpu time spent up to now is      502.0 secs

     total energy              =    -156.47409743 Ry
     estimated scf accuracy    <       0.00000061 Ry

     iteration #  5     ecut=   100.00 Ry     beta= 0.70
     Davidson diagonalization with overlap
     ethr =  1.27E-09,  avg # of iterations =  2.0

     total cpu time spent up to now is      518.1 secs

     total energy              =    -156.47409750 Ry
     estimated scf accuracy    <       0.00000002 Ry

     iteration #  6     ecut=   100.00 Ry     beta= 0.70
     Davidson diagonalization with overlap
     ethr =  4.02E-11,  avg # of iterations =  5.1

     total cpu time spent up to now is      539.0 secs

     total energy              =    -156.47409752 Ry
     estimated scf accuracy    <          6.8E-09 Ry

     iteration #  7     ecut=   100.00 Ry     beta= 0.70
     Davidson diagonalization with overlap
     ethr =  1.42E-11,  avg # of iterations =  3.1

     total cpu time spent up to now is      555.9 secs

     total energy              =    -156.47409752 Ry
     estimated scf accuracy    <          1.2E-10 Ry

     iteration #  8     ecut=   100.00 Ry     beta= 0.70
     Davidson diagonalization with overlap
     ethr =  2.54E-13,  avg # of iterations =  6.2

     total cpu time spent up to now is      582.2 secs

     End of self-consistent calculation

          k = 0.0000 0.0000 0.0000 ( 24653 PWs)   bands (ev):

   -24.0388 -24.0305  -9.5569  -9.4733  -9.2891  -9.2523  -9.2208  -9.1612
    -6.0855  -5.1576  -4.5116  -4.3598  -1.7699  -0.8776  -0.8246  -0.4759
    -0.0962  -0.0758  -0.0394   0.0871   0.2505   0.6410   0.6600   0.6989

          k = 0.0000 0.0000 0.3614 ( 24714 PWs)   bands (ev):

   -24.0315 -24.0256  -9.4655  -9.4637  -9.4398  -9.4092  -9.2720  -9.2518
    -5.5996  -4.9075  -4.6759  -4.5783  -1.3956  -1.1465  -0.6882  -0.6471
    -0.5039  -0.3903  -0.0327   0.2470   0.4461   0.4763   0.5536   0.6977

          k = 0.0000 0.0000-0.7228 ( 24728 PWs)   bands (ev):

   -24.0224 -24.0224  -9.6743  -9.6741  -9.3270  -9.3270  -9.2818  -9.2817
    -4.9050  -4.9045  -4.8220  -4.8215  -1.1573  -1.1568  -1.1429  -1.1414
    -0.1106  -0.1100  -0.0515  -0.0496   0.5145   0.5146   0.5296   0.5300

          k = 0.0000 0.2437 0.0000 ( 24698 PWs)   bands (ev):

   -24.0376 -24.0317  -9.5287  -9.4445  -9.3390  -9.2857  -9.2119  -9.1697
    -5.8917  -5.0706  -4.7873  -4.4855  -1.4182  -1.0053  -0.9536  -0.1905
    -0.1796  -0.1652   0.1313   0.2490   0.3236   0.3381   0.5553   0.6321

          k = 0.0000 0.2437 0.3614 ( 24686 PWs)   bands (ev):

   -24.0306 -24.0264  -9.5076  -9.4694  -9.3950  -9.3829  -9.2804  -9.2724
    -5.4955  -4.9788  -4.7182  -4.6183  -1.2087  -1.1703  -0.9699  -0.4150
    -0.3746  -0.1881  -0.1707   0.2981   0.3775   0.4186   0.5256   0.5812

          k = 0.0000 0.2437-0.7228 ( 24714 PWs)   bands (ev):

   -24.0224 -24.0224  -9.6873  -9.6872  -9.3095  -9.3095  -9.2810  -9.2810
    -5.1740  -5.1740  -4.5427  -4.5427  -1.2736  -1.2730  -0.9727  -0.9720
    -0.0414  -0.0413  -0.0080  -0.0064   0.3486   0.3486   0.5235   0.5237

          k = 0.0000-0.4874 0.0000 ( 24714 PWs)   bands (ev):

   -24.0346 -24.0346  -9.4501  -9.4501  -9.3617  -9.3617  -9.1906  -9.1906
    -5.4047  -5.4047  -4.7644  -4.7644  -1.1240  -1.1240  -0.4959  -0.4959
    -0.2561  -0.2561   0.2350   0.2350   0.3720   0.3720   0.4924   0.4924

          k = 0.0000-0.4874 0.3614 ( 24732 PWs)   bands (ev):

   -24.0285 -24.0285  -9.5063  -9.5063  -9.3430  -9.3430  -9.3075  -9.3075
    -5.2358  -5.2358  -4.6933  -4.6933  -1.1521  -1.1521  -0.7457  -0.7457
    -0.1403  -0.1403   0.1413   0.1413   0.2894   0.2894   0.5022   0.5022

          k = 0.0000-0.4874-0.7228 ( 24672 PWs)   bands (ev):

   -24.0224 -24.0224  -9.6992  -9.6992  -9.2952  -9.2952  -9.2781  -9.2781
    -5.2988  -5.2988  -4.4078  -4.4078  -1.3621  -1.3621  -0.7353  -0.7353
    -0.1147  -0.1147   0.0705   0.0705   0.1572   0.1572   0.5597   0.5597

          k = 0.2499 0.0000 0.0000 ( 24639 PWs)   bands (ev):

   -24.0376 -24.0317  -9.5199  -9.4551  -9.3302  -9.3010  -9.2119  -9.1697
    -5.9004  -5.1927  -4.5487  -4.5094  -1.5818  -0.7397  -0.7350  -0.5979
    -0.0569  -0.0239   0.0457   0.1057   0.2076   0.2254   0.6066   0.6439

          k = 0.2499 0.0000 0.3614 ( 24716 PWs)   bands (ev):

   -24.0306 -24.0264  -9.4986  -9.4806  -9.4224  -9.3601  -9.2957  -9.2609
    -5.4543  -4.8959  -4.7062  -4.7050  -1.3644  -1.1278  -0.9743  -0.4697
    -0.4494  -0.1849   0.0400   0.1748   0.3068   0.4380   0.6240   0.6515

          k = 0.2499 0.0000-0.7228 ( 24710 PWs)   bands (ev):

   -24.0224 -24.0223  -9.6917  -9.6916  -9.3142  -9.3142  -9.2785  -9.2784
    -4.9778  -4.9774  -4.7200  -4.7196  -1.6175  -1.6171  -0.7141  -0.7138
    -0.1215  -0.1211   0.1975   0.1990   0.3242   0.3242   0.5641   0.5645

          k = 0.2499 0.2437 0.0000 ( 24684 PWs)   bands (ev):

   -24.0367 -24.0326  -9.5457  -9.4324  -9.3788  -9.2588  -9.2055  -9.1756
    -5.7605  -5.1524  -4.7797  -4.5467  -1.3009  -0.9749  -0.7570  -0.3023
    -0.2269  -0.1817   0.1096   0.2584   0.2706   0.3519   0.4181   0.5637

          k = 0.2499 0.2437 0.3614 ( 24696 PWs)   bands (ev):

   -24.0300 -24.0270  -9.5006  -9.4629  -9.4574  -9.3422  -9.3050  -9.2548
    -5.3670  -4.9294  -4.8004  -4.6955  -1.3278  -1.0856  -1.0036  -0.4593
    -0.2962  -0.1243  -0.0236   0.1930   0.2882   0.4005   0.5471   0.6306

          k = 0.2499 0.2437-0.7228 ( 24706 PWs)   bands (ev):

   -24.0223 -24.0223  -9.6985  -9.6760  -9.3340  -9.2967  -9.2854  -9.2791
    -5.1826  -5.0105  -4.6802  -4.5035  -1.5938  -1.5161  -0.7817  -0.6836
    -0.1671  -0.1658   0.1711   0.2282   0.3425   0.3814   0.5140   0.5440

          k = 0.2499-0.4874 0.0000 ( 24698 PWs)   bands (ev):

   -24.0346 -24.0346  -9.5211  -9.5211  -9.2915  -9.2915  -9.1903  -9.1903
    -5.4037  -5.4037  -4.7560  -4.7560  -1.0299  -1.0299  -0.5066  -0.5066
    -0.2919  -0.2919   0.1727   0.1727   0.4073   0.4073   0.4246   0.4246

          k = 0.2499-0.4874 0.3614 ( 24700 PWs)   bands (ev):

   -24.0285 -24.0285  -9.4956  -9.4956  -9.4002  -9.4002  -9.2680  -9.2680
    -5.1491  -5.1491  -4.7620  -4.7620  -1.2372  -1.2372  -0.6824  -0.6824
    -0.1554  -0.1554   0.1612   0.1612   0.2990   0.2990   0.5207   0.5207

          k = 0.2499-0.4874-0.7228 ( 24716 PWs)   bands (ev):

   -24.0223 -24.0223  -9.6838  -9.6838  -9.3173  -9.3173  -9.2844  -9.2844
    -5.1948  -5.1948  -4.4844  -4.4844  -1.4842  -1.4842  -0.7977  -0.7977
    -0.0558  -0.0558   0.0723   0.0723   0.3692   0.3692   0.5341   0.5341

          k =-0.4998 0.0000 0.0000 ( 24692 PWs)   bands (ev):

   -24.0346 -24.0346  -9.4299  -9.4299  -9.3899  -9.3899  -9.1906  -9.1906
    -5.4821  -5.4821  -4.6083  -4.6083  -1.1657  -1.1657  -0.3845  -0.3845
    -0.0183  -0.0183  -0.0105  -0.0105   0.0898   0.0898   0.4983   0.4983

          k =-0.4998 0.0000 0.3614 ( 24692 PWs)   bands (ev):

   -24.0285 -24.0285  -9.5096  -9.5096  -9.3634  -9.3634  -9.2943  -9.2943
    -5.1130  -5.1130  -4.7678  -4.7678  -1.2873  -1.2873  -0.7391  -0.7391
    -0.1588  -0.1588   0.0304   0.0304   0.4025   0.4025   0.6105   0.6105

          k =-0.4998 0.0000-0.7228 ( 24764 PWs)   bands (ev):

   -24.0223 -24.0223  -9.7079  -9.7079  -9.3041  -9.3041  -9.2737  -9.2737
    -5.0171  -5.0171  -4.6491  -4.6491  -1.8262  -1.8262  -0.4306  -0.4306
    -0.1288  -0.1288   0.0426   0.0426   0.5081   0.5081   0.5254   0.5254

          k =-0.4998 0.2437 0.0000 ( 24654 PWs)   bands (ev):

   -24.0346 -24.0346  -9.5196  -9.5196  -9.2970  -9.2970  -9.1903  -9.1903
    -5.4463  -5.4463  -4.6742  -4.6742  -1.0628  -1.0628  -0.3911  -0.3911
    -0.2253  -0.2253  -0.0462  -0.0462   0.3184   0.3184   0.4778   0.4778

          k =-0.4998 0.2437 0.3614 ( 24712 PWs)   bands (ev):

   -24.0285 -24.0285  -9.4977  -9.4977  -9.4045  -9.4045  -9.2668  -9.2668
    -5.0697  -5.0697  -4.8171  -4.8171  -1.2925  -1.2925  -0.7145  -0.7145
    -0.1234  -0.1234   0.0783   0.0783   0.3940   0.3940   0.5442   0.5442

          k =-0.4998 0.2437-0.7228 ( 24708 PWs)   bands (ev):

   -24.0223 -24.0223  -9.6885  -9.6885  -9.3198  -9.3198  -9.2836  -9.2836
    -5.0390  -5.0390  -4.6197  -4.6197  -1.7268  -1.7268  -0.6362  -0.6362
    -0.0829  -0.0829   0.1111   0.1111   0.4484   0.4484   0.5843   0.5843

          k =-0.4998-0.4874 0.0000 ( 24600 PWs)   bands (ev):

   -24.0346 -24.0346  -9.5629  -9.5629  -9.2505  -9.2505  -9.1900  -9.1900
    -5.4045  -5.4045  -4.7450  -4.7450  -0.9151  -0.9151  -0.5395  -0.5395
    -0.3244  -0.3244   0.1436   0.1436   0.3238   0.3238   0.4393   0.4393

          k =-0.4998-0.4874 0.3614 ( 24680 PWs)   bands (ev):

   -24.0284 -24.0284  -9.4744  -9.4744  -9.4460  -9.4460  -9.2503  -9.2503
    -4.9961  -4.9961  -4.8963  -4.8963  -1.2796  -1.2796  -0.7574  -0.7574
     0.0288   0.0288   0.1623   0.1623   0.3067   0.3067   0.4516   0.4516

          k =-0.4998-0.4874-0.7228 ( 24720 PWs)   bands (ev):

   -24.0223 -24.0223  -9.6665  -9.6665  -9.3417  -9.3417  -9.2900  -9.2900
    -5.0588  -5.0588  -4.5923  -4.5923  -1.5731  -1.5731  -0.9230  -0.9230
     0.1361   0.1361   0.1801   0.1801   0.3265   0.3265   0.5534   0.5534

     highest occupied level (ev):     0.6989

!    total energy              =    -156.47409752 Ry
     estimated scf accuracy    <          1.6E-11 Ry

     The total energy is the sum of the following terms:
     one-electron contribution =     -23.33714484 Ry
     hartree contribution      =      25.84352751 Ry
     xc contribution           =     -49.08401662 Ry
     ewald contribution        =    -109.89646357 Ry

     convergence has been achieved in   8 iterations

     Forces acting on atoms (cartesian axes, Ry/au):

     atom    1 type  2   force =     0.00000000    0.00000000    0.00000570
     atom    2 type  2   force =     0.00000000    0.00000000   -0.00000570
     atom    3 type  1   force =     0.00022267    0.00051008   -0.00000874
     atom    4 type  1   force =    -0.00022267   -0.00051008   -0.00000874
     atom    5 type  1   force =     0.00022267   -0.00051008    0.00000874
     atom    6 type  1   force =    -0.00022267    0.00051008    0.00000874
     atom    7 type  3   force =     0.00045762    0.00015902   -0.00001678
     atom    8 type  3   force =    -0.00045762   -0.00015902   -0.00001678
     atom    9 type  3   force =     0.00045762   -0.00015902    0.00001678
     atom   10 type  3   force =    -0.00045762    0.00015902    0.00001678
     atom   11 type  3   force =    -0.00019392    0.00030090    0.00000281
     atom   12 type  3   force =     0.00019392   -0.00030090    0.00000281
     atom   13 type  3   force =    -0.00019392   -0.00030090   -0.00000281
     atom   14 type  3   force =     0.00019392    0.00030090   -0.00000281
     atom   15 type  3   force =     0.00023697    0.00034339    0.00008954
     atom   16 type  3   force =    -0.00023697   -0.00034339    0.00008954
     atom   17 type  3   force =     0.00023697   -0.00034339   -0.00008954
     atom   18 type  3   force =    -0.00023697    0.00034339   -0.00008954
     atom   19 type  3   force =    -0.00020015   -0.00035467   -0.00009625
     atom   20 type  3   force =     0.00020015    0.00035467   -0.00009625
     atom   21 type  3   force =    -0.00020015    0.00035467    0.00009625
     atom   22 type  3   force =     0.00020015   -0.00035467    0.00009625

     Total force =     0.002030     Total SCF correction =     0.000002


     Computing stress (Cartesian axis) and pressure

          total   stress  (Ry/bohr**3)                   (kbar)     P=       -6.51
  -0.00004122   0.00000000   0.00000000           -6.06        0.00        0.00
   0.00000000  -0.00004137   0.00000000            0.00       -6.09        0.00
   0.00000000   0.00000000  -0.00005024            0.00        0.00       -7.39

     Volume is kept fixed: isostatic pressure set to zero
     Energy error            =      3.9E-04 Ry
     Gradient error          =      5.1E-04 Ry/Bohr
     Cell gradient error     =      8.8E-01 kbar

     number of scf cycles    =   3
     number of bfgs steps    =   2

     enthalpy           old  =    -156.4737085127 Ry
     enthalpy           new  =    -156.4740975202 Ry

     CASE: enthalpy          _new < enthalpy          _old

     new trust radius        =       0.0014227036 bohr
ibrav =      8
 celldm(1) =     12.73088383
 celldm(2) =      1.02545257
 celldm(3) =      0.69126975
Input lattice vectors:
     1.00058039     0.00000000     0.00000000
     0.00000000     1.02604774     0.00000000
     0.00000000     0.00000000     0.69167096
New lattice vectors in INITIAL alat:
     1.00058039     0.00000000     0.00000000
     0.00000000     1.02604774     0.00000000
     0.00000000     0.00000000     0.69167096
New lattice vectors in NEW alat (for information only):
     1.00000000     0.00000000     0.00000000
     0.00000000     1.02545257     0.00000000
     0.00000000     0.00000000     0.69126975
Discrepancy in bohr =     0.000000    0.000000    0.000000
     new conv_thr            =            3.9E-11 Ry

     new unit-cell volume =   1462.64455 a.u.^3 (   216.74156 Ang^3 )
     density =      2.55909 g/cm^3

CELL_PARAMETERS (alat= 12.72349920)
   1.000580392   0.000000000   0.000000000
   0.000000000   1.026047740   0.000000000
   0.000000000   0.000000000   0.691670955

ATOMIC_POSITIONS (crystal)
Ba               0.5000000000        0.5000000000        0.5001040632
Ba               0.0000000000        0.0000000000        0.9998959368
B                0.6103278841        0.2394660567        0.0000598599
B                0.3896721159        0.7605339433        0.0000598599
B                0.1103278841        0.2605339433        0.4999401401
B                0.8896721159        0.7394660567        0.4999401401
H                0.4354864052        0.2918548979        0.0002217099
H                0.5645135948        0.7081451021        0.0002217099
H                0.9354864052        0.2081451021        0.4997782901
H                0.0645135948        0.7918548979        0.4997782901
H                0.7211501149        0.3825676927       -0.0000057555
H                0.2788498851        0.6174323073       -0.0000057555
H                0.2211501149        0.1174323073        0.5000057555
H                0.7788498851        0.8825676927        0.5000057555
H                0.6391323124        0.1428909250        0.7821994017
H                0.3608676876        0.8571090750        0.7821994017
H                0.1391323124        0.3571090750        0.7178005983
H                0.8608676876        0.6428909250        0.7178005983
H                0.3606668910        0.8571535653        0.2178197154
H                0.6393331090        0.1428464347        0.2178197154
H                0.8606668910        0.6428464347        0.2821802846
H                0.1393331090        0.3571535653        0.2821802846



     Writing config-only to output data dir ./pwscf.save/ :
     XML data file
     NEW-OLD atomic charge density approx. for the potential

     total cpu time spent up to now is      612.9 secs

     Self-consistent Calculation

     iteration #  1     ecut=   100.00 Ry     beta= 0.70
     Davidson diagonalization with overlap
     ethr =  1.00E-06,  avg # of iterations =  1.1

     Threshold (ethr) on eigenvalues was too large:
     Diagonalizing with lowered threshold

     Davidson diagonalization with overlap
     ethr =  1.31E-09,  avg # of iterations =  4.0

     total cpu time spent up to now is      647.3 secs

     total energy              =    -156.47410369 Ry
     estimated scf accuracy    <       0.00000245 Ry

     iteration #  2     ecut=   100.00 Ry     beta= 0.70
     Davidson diagonalization with overlap
     ethr =  5.10E-09,  avg # of iterations =  2.0

     total cpu time spent up to now is      663.2 secs

     total energy              =    -156.47410439 Ry
     estimated scf accuracy    <       0.00000050 Ry

     iteration #  3     ecut=   100.00 Ry     beta= 0.70
     Davidson diagonalization with overlap
     ethr =  1.04E-09,  avg # of iterations =  2.0

     total cpu time spent up to now is      679.1 secs

     total energy              =    -156.47410446 Ry
     estimated scf accuracy    <          7.9E-09 Ry

     iteration #  4     ecut=   100.00 Ry     beta= 0.70
     Davidson diagonalization with overlap
     ethr =  1.65E-11,  avg # of iterations =  3.0

     total cpu time spent up to now is      697.8 secs

     total energy              =    -156.47410446 Ry
     estimated scf accuracy    <          2.4E-09 Ry

     iteration #  5     ecut=   100.00 Ry     beta= 0.70
     Davidson diagonalization with overlap
     ethr =  4.92E-12,  avg # of iterations =  2.4

     total cpu time spent up to now is      713.9 secs

     End of self-consistent calculation

          k = 0.0000 0.0000 0.0000 ( 24653 PWs)   bands (ev):

   -24.0391 -24.0309  -9.5575  -9.4738  -9.2896  -9.2527  -9.2211  -9.1615
    -6.0869  -5.1598  -4.5138  -4.3621  -1.7708  -0.8788  -0.8253  -0.4781
    -0.0965  -0.0776  -0.0388   0.0867   0.2509   0.6391   0.6581   0.6959

          k = 0.0000 0.0000 0.3614 ( 24714 PWs)   bands (ev):

   -24.0318 -24.0259  -9.4659  -9.4644  -9.4405  -9.4096  -9.2724  -9.2522
    -5.6007  -4.9093  -4.6783  -4.5808  -1.3959  -1.1471  -0.6889  -0.6483
    -0.5043  -0.3905  -0.0339   0.2458   0.4444   0.4740   0.5523   0.6953

          k = 0.0000 0.0000-0.7229 ( 24728 PWs)   bands (ev):

   -24.0227 -24.0227  -9.6754  -9.6752  -9.3272  -9.3272  -9.2821  -9.2821
    -4.9061  -4.9057  -4.8247  -4.8242  -1.1570  -1.1565  -1.1433  -1.1419
    -0.1120  -0.1114  -0.0526  -0.0507   0.5122   0.5122   0.5279   0.5283

          k = 0.0000 0.2437 0.0000 ( 24698 PWs)   bands (ev):

   -24.0379 -24.0321  -9.5293  -9.4450  -9.3395  -9.2861  -9.2122  -9.1701
    -5.8932  -5.0730  -4.7890  -4.4878  -1.4194  -1.0062  -0.9546  -0.1904
    -0.1792  -0.1673   0.1293   0.2488   0.3210   0.3382   0.5534   0.6301

          k = 0.0000 0.2437 0.3614 ( 24686 PWs)   bands (ev):

   -24.0309 -24.0268  -9.5082  -9.4701  -9.3956  -9.3833  -9.2809  -9.2728
    -5.4968  -4.9806  -4.7204  -4.6207  -1.2091  -1.1708  -0.9706  -0.4152
    -0.3754  -0.1897  -0.1714   0.2967   0.3758   0.4162   0.5243   0.5792

          k = 0.0000 0.2437-0.7229 ( 24714 PWs)   bands (ev):

   -24.0227 -24.0227  -9.6884  -9.6882  -9.3098  -9.3098  -9.2814  -9.2814
    -5.1759  -5.1759  -4.5446  -4.5446  -1.2741  -1.2734  -0.9726  -0.9718
    -0.0429  -0.0428  -0.0094  -0.0077   0.3472   0.3472   0.5211   0.5213

          k = 0.0000-0.4873 0.0000 ( 24714 PWs)   bands (ev):

   -24.0350 -24.0350  -9.4506  -9.4506  -9.3621  -9.3621  -9.1909  -9.1909
    -5.4065  -5.4065  -4.7665  -4.7665  -1.1249  -1.1249  -0.4977  -0.4977
    -0.2558  -0.2558   0.2326   0.2326   0.3719   0.3719   0.4905   0.4905

          k = 0.0000-0.4873 0.3614 ( 24732 PWs)   bands (ev):

   -24.0288 -24.0288  -9.5069  -9.5069  -9.3435  -9.3435  -9.3078  -9.3078
    -5.2373  -5.2373  -4.6954  -4.6954  -1.1526  -1.1526  -0.7465  -0.7465
    -0.1413  -0.1413   0.1405   0.1405   0.2869   0.2869   0.5007   0.5007

          k = 0.0000-0.4873-0.7229 ( 24672 PWs)   bands (ev):

   -24.0226 -24.0226  -9.7002  -9.7002  -9.2954  -9.2954  -9.2785  -9.2785
    -5.3008  -5.3008  -4.4097  -4.4097  -1.3625  -1.3625  -0.7351  -0.7351
    -0.1165  -0.1165   0.0693   0.0693   0.1556   0.1556   0.5574   0.5574

          k = 0.2499 0.0000 0.0000 ( 24639 PWs)   bands (ev):

   -24.0379 -24.0320  -9.5204  -9.4556  -9.3306  -9.3014  -9.2122  -9.1701
    -5.9020  -5.1949  -4.5508  -4.5116  -1.5827  -0.7413  -0.7357  -0.5993
    -0.0566  -0.0240   0.0458   0.1034   0.2076   0.2240   0.6045   0.6410

          k = 0.2499 0.0000 0.3614 ( 24716 PWs)   bands (ev):

   -24.0309 -24.0267  -9.4993  -9.4813  -9.4229  -9.3606  -9.2961  -9.2612
    -5.4556  -4.8976  -4.7085  -4.7074  -1.3644  -1.1286  -0.9745  -0.4705
    -0.4506  -0.1856   0.0385   0.1732   0.3058   0.4365   0.6215   0.6497

          k = 0.2499 0.0000-0.7229 ( 24710 PWs)   bands (ev):

   -24.0226 -24.0226  -9.6928  -9.6926  -9.3145  -9.3144  -9.2789  -9.2788
    -4.9800  -4.9796  -4.7216  -4.7213  -1.6174  -1.6169  -0.7144  -0.7141
    -0.1229  -0.1225   0.1961   0.1975   0.3222   0.3222   0.5622   0.5625

          k = 0.2499 0.2437 0.0000 ( 24684 PWs)   bands (ev):

   -24.0370 -24.0329  -9.5462  -9.4330  -9.3791  -9.2592  -9.2058  -9.1760
    -5.7621  -5.1548  -4.7815  -4.5487  -1.3022  -0.9760  -0.7581  -0.3038
    -0.2266  -0.1814   0.1075   0.2583   0.2682   0.3517   0.4161   0.5615

          k = 0.2499 0.2437 0.3614 ( 24696 PWs)   bands (ev):

   -24.0303 -24.0273  -9.5012  -9.4636  -9.4578  -9.3427  -9.3053  -9.2552
    -5.3684  -4.9313  -4.8025  -4.6978  -1.3278  -1.0858  -1.0045  -0.4602
    -0.2973  -0.1251  -0.0249   0.1918   0.2863   0.3988   0.5454   0.6287

          k = 0.2499 0.2437-0.7229 ( 24706 PWs)   bands (ev):

   -24.0226 -24.0226  -9.6995  -9.6770  -9.3343  -9.2970  -9.2858  -9.2794
    -5.1847  -5.0125  -4.6821  -4.5052  -1.5938  -1.5160  -0.7821  -0.6838
    -0.1685  -0.1674   0.1701   0.2269   0.3400   0.3797   0.5127   0.5414

          k = 0.2499-0.4873 0.0000 ( 24698 PWs)   bands (ev):

   -24.0349 -24.0349  -9.5216  -9.5216  -9.2919  -9.2919  -9.1906  -9.1906
    -5.4057  -5.4057  -4.7578  -4.7578  -1.0310  -1.0310  -0.5083  -0.5083
    -0.2916  -0.2916   0.1707   0.1707   0.4071   0.4071   0.4226   0.4226

          k = 0.2499-0.4873 0.3614 ( 24700 PWs)   bands (ev):

   -24.0288 -24.0288  -9.4962  -9.4962  -9.4007  -9.4007  -9.2683  -9.2683
    -5.1508  -5.1508  -4.7641  -4.7641  -1.2373  -1.2373  -0.6835  -0.6835
    -0.1562  -0.1562   0.1600   0.1600   0.2970   0.2970   0.5192   0.5192

          k = 0.2499-0.4873-0.7229 ( 24716 PWs)   bands (ev):

   -24.0226 -24.0226  -9.6848  -9.6848  -9.3175  -9.3175  -9.2848  -9.2848
    -5.1968  -5.1968  -4.4862  -4.4862  -1.4843  -1.4843  -0.7979  -0.7979
    -0.0574  -0.0574   0.0710   0.0710   0.3673   0.3673   0.5321   0.5321

          k =-0.4997 0.0000 0.0000 ( 24692 PWs)   bands (ev):

   -24.0349 -24.0349  -9.4305  -9.4305  -9.3902  -9.3902  -9.1909  -9.1909
    -5.4840  -5.4840  -4.6104  -4.6104  -1.1669  -1.1669  -0.3855  -0.3855
    -0.0178  -0.0178  -0.0123  -0.0123   0.0895   0.0895   0.4956   0.4956

          k =-0.4997 0.0000 0.3614 ( 24692 PWs)   bands (ev):

   -24.0288 -24.0288  -9.5102  -9.5102  -9.3638  -9.3638  -9.2947  -9.2947
    -5.1147  -5.1147  -4.7700  -4.7700  -1.2871  -1.2871  -0.7402  -0.7402
    -0.1599  -0.1599   0.0290   0.0290   0.4014   0.4014   0.6083   0.6083

          k =-0.4997 0.0000-0.7229 ( 24764 PWs)   bands (ev):

   -24.0226 -24.0226  -9.7089  -9.7089  -9.3043  -9.3043  -9.2741  -9.2741
    -5.0196  -5.0196  -4.6505  -4.6505  -1.8259  -1.8259  -0.4310  -0.4310
    -0.1302  -0.1302   0.0410   0.0410   0.5068   0.5068   0.5230   0.5230

          k =-0.4997 0.2437 0.0000 ( 24654 PWs)   bands (ev):

   -24.0349 -24.0349  -9.5201  -9.5201  -9.2974  -9.2974  -9.1906  -9.1906
    -5.4484  -5.4484  -4.6761  -4.6761  -1.0641  -1.0641  -0.3924  -0.3924
    -0.2250  -0.2250  -0.0478  -0.0478   0.3182   0.3182   0.4753   0.4753

          k =-0.4997 0.2437 0.3614 ( 24712 PWs)   bands (ev):

   -24.0288 -24.0288  -9.4983  -9.4983  -9.4050  -9.4050  -9.2672  -9.2672
    -5.0714  -5.0714  -4.8192  -4.8192  -1.2925  -1.2925  -0.7156  -0.7156
    -0.1247  -0.1247   0.0770   0.0770   0.3927   0.3927   0.5422   0.5422

          k =-0.4997 0.2437-0.7229 ( 24708 PWs)   bands (ev):

   -24.0226 -24.0226  -9.6895  -9.6895  -9.3201  -9.3201  -9.2840  -9.2840
    -5.0413  -5.0413  -4.6213  -4.6213  -1.7265  -1.7265  -0.6366  -0.6366
    -0.0845  -0.0845   0.1097   0.1097   0.4463   0.4463   0.5827   0.5827

          k =-0.4997-0.4873 0.0000 ( 24600 PWs)   bands (ev):

   -24.0349 -24.0349  -9.5634  -9.5634  -9.2509  -9.2509  -9.1903  -9.1903
    -5.4067  -5.4067  -4.7466  -4.7466  -0.9168  -0.9168  -0.5406  -0.5406
    -0.3240  -0.3240   0.1415   0.1415   0.3219   0.3219   0.4391   0.4391

          k =-0.4997-0.4873 0.3614 ( 24680 PWs)   bands (ev):

   -24.0288 -24.0288  -9.4747  -9.4747  -9.4468  -9.4468  -9.2507  -9.2507
    -4.9981  -4.9981  -4.8982  -4.8982  -1.2797  -1.2797  -0.7583  -0.7583
     0.0276   0.0276   0.1605   0.1605   0.3049   0.3049   0.4505   0.4505

          k =-0.4997-0.4873-0.7229 ( 24720 PWs)   bands (ev):

   -24.0226 -24.0226  -9.6676  -9.6676  -9.3419  -9.3419  -9.2903  -9.2903
    -5.0610  -5.0610  -4.5940  -4.5940  -1.5729  -1.5729  -0.9233  -0.9233
     0.1348   0.1348   0.1780   0.1780   0.3242   0.3242   0.5521   0.5521

     highest occupied level (ev):     0.6959

!    total energy              =    -156.47410446 Ry
     estimated scf accuracy    <          3.7E-11 Ry

     The total energy is the sum of the following terms:
     one-electron contribution =     -23.36706029 Ry
     hartree contribution      =      25.85845174 Ry
     xc contribution           =     -49.08684940 Ry
     ewald contribution        =    -109.87864651 Ry

     convergence has been achieved in   5 iterations

     Forces acting on atoms (cartesian axes, Ry/au):

     atom    1 type  2   force =     0.00000000    0.00000000    0.00000426
     atom    2 type  2   force =     0.00000000    0.00000000   -0.00000426
     atom    3 type  1   force =     0.00021477    0.00041409   -0.00000795
     atom    4 type  1   force =    -0.00021477   -0.00041409   -0.00000795
     atom    5 type  1   force =     0.00021477   -0.00041409    0.00000795
     atom    6 type  1   force =    -0.00021477    0.00041409    0.00000795
     atom    7 type  3   force =     0.00021771    0.00022396   -0.00001717
     atom    8 type  3   force =    -0.00021771   -0.00022396   -0.00001717
     atom    9 type  3   force =     0.00021771   -0.00022396    0.00001717
     atom   10 type  3   force =    -0.00021771    0.00022396    0.00001717
     atom   11 type  3   force =    -0.00001003    0.00052890    0.00000238
     atom   12 type  3   force =     0.00001003   -0.00052890    0.00000238
     atom   13 type  3   force =    -0.00001003   -0.00052890   -0.00000238
     atom   14 type  3   force =     0.00001003    0.00052890   -0.00000238
     atom   15 type  3   force =     0.00027440    0.00023481   -0.00016285
     atom   16 type  3   force =    -0.00027440   -0.00023481   -0.00016285
     atom   17 type  3   force =     0.00027440   -0.00023481    0.00016285
     atom   18 type  3   force =    -0.00027440    0.00023481    0.00016285
     atom   19 type  3   force =    -0.00023957   -0.00024449    0.00015702
     atom   20 type  3   force =     0.00023957    0.00024449    0.00015702
     atom   21 type  3   force =    -0.00023957    0.00024449   -0.00015702
     atom   22 type  3   force =     0.00023957   -0.00024449   -0.00015702

     Total force =     0.001891     Total SCF correction =     0.000002


     Computing stress (Cartesian axis) and pressure

          total   stress  (Ry/bohr**3)                   (kbar)     P=       -6.16
  -0.00003919   0.00000000   0.00000000           -5.76        0.00        0.00
   0.00000000  -0.00003943   0.00000000            0.00       -5.80        0.00
   0.00000000   0.00000000  -0.00004702            0.00        0.00       -6.92

     Volume is kept fixed: isostatic pressure set to zero
     Energy error            =      6.9E-06 Ry
     Gradient error          =      5.3E-04 Ry/Bohr
     Cell gradient error     =      7.6E-01 kbar

     number of scf cycles    =   4
     number of bfgs steps    =   3

     enthalpy           old  =    -156.4740975202 Ry
     enthalpy           new  =    -156.4741044592 Ry

     CASE: enthalpy          _new < enthalpy          _old

     new trust radius        =       0.0021328223 bohr
ibrav =      8
 celldm(1) =     12.73273834
 celldm(2) =      1.02543973
 celldm(3) =      0.69097640
Input lattice vectors:
     1.00072615     0.00000000     0.00000000
     0.00000000     1.02618435     0.00000000
     0.00000000     0.00000000     0.69147815
New lattice vectors in INITIAL alat:
     1.00072615     0.00000000     0.00000000
     0.00000000     1.02618435     0.00000000
     0.00000000     0.00000000     0.69147815
New lattice vectors in NEW alat (for information only):
     1.00000000     0.00000000     0.00000000
     0.00000000     1.02543973     0.00000000
     0.00000000     0.00000000     0.69097640
Discrepancy in bohr =     0.000000    0.000000    0.000000
     new conv_thr            =            1.0E-12 Ry

     new unit-cell volume =   1462.64455 a.u.^3 (   216.74156 Ang^3 )
     density =      2.55909 g/cm^3

CELL_PARAMETERS (alat= 12.72349920)
   1.000726148   0.000000000   0.000000000
   0.000000000   1.026184350   0.000000000
   0.000000000   0.000000000   0.691478148

ATOMIC_POSITIONS (crystal)
Ba               0.5000000000        0.5000000000        0.5001051903
Ba               0.0000000000        0.0000000000        0.9998948097
B                0.6103615899        0.2395367388        0.0000579801
B                0.3896384101        0.7604632612        0.0000579801
B                0.1103615899        0.2604632612        0.4999420199
B                0.8896384101        0.7395367388        0.4999420199
H                0.4355629828        0.2918768223        0.0002178813
H                0.5644370172        0.7081231777        0.0002178813
H                0.9355629828        0.2081231777        0.4997821187
H                0.0644370172        0.7918768223        0.4997821187
H                0.7211180071        0.3826092161       -0.0000051572
H                0.2788819929        0.6173907839       -0.0000051572
H                0.2211180071        0.1173907839        0.5000051572
H                0.7788819929        0.8826092161        0.5000051572
H                0.6391680752        0.1429484240        0.7822229407
H                0.3608319248        0.8570515760        0.7822229407
H                0.1391680752        0.3570515760        0.7177770593
H                0.8608319248        0.6429484240        0.7177770593
H                0.3606367424        0.8570944588        0.2177947739
H                0.6393632576        0.1429055412        0.2177947739
H                0.8606367424        0.6429055412        0.2822052261
H                0.1393632576        0.3570944588        0.2822052261



     Writing config-only to output data dir ./pwscf.save/ :
     XML data file
     NEW-OLD atomic charge density approx. for the potential

     total cpu time spent up to now is      744.5 secs

     Self-consistent Calculation

     iteration #  1     ecut=   100.00 Ry     beta= 0.70
     Davidson diagonalization with overlap
     ethr =  1.00E-06,  avg # of iterations =  2.0

     Threshold (ethr) on eigenvalues was too large:
     Diagonalizing with lowered threshold

     Davidson diagonalization with overlap
     ethr =  1.61E-09,  avg # of iterations =  4.1

     total cpu time spent up to now is      779.8 secs

     total energy              =    -156.47411235 Ry
     estimated scf accuracy    <       0.00000182 Ry

     iteration #  2     ecut=   100.00 Ry     beta= 0.70
     Davidson diagonalization with overlap
     ethr =  3.79E-09,  avg # of iterations =  2.0

     total cpu time spent up to now is      795.8 secs

     total energy              =    -156.47411276 Ry
     estimated scf accuracy    <       0.00000020 Ry

     iteration #  3     ecut=   100.00 Ry     beta= 0.70
     Davidson diagonalization with overlap
     ethr =  4.09E-10,  avg # of iterations =  2.0

     total cpu time spent up to now is      812.0 secs

     total energy              =    -156.47411279 Ry
     estimated scf accuracy    <          5.3E-09 Ry

     iteration #  4     ecut=   100.00 Ry     beta= 0.70
     Davidson diagonalization with overlap
     ethr =  1.10E-11,  avg # of iterations =  4.4

     total cpu time spent up to now is      831.0 secs

     total energy              =    -156.47411280 Ry
     estimated scf accuracy    <          8.6E-10 Ry

     iteration #  5     ecut=   100.00 Ry     beta= 0.70
     Davidson diagonalization with overlap
     ethr =  1.80E-12,  avg # of iterations =  3.9

     total cpu time spent up to now is      849.3 secs

     total energy              =    -156.47411280 Ry
     estimated scf accuracy    <          1.7E-11 Ry

     iteration #  6     ecut=   100.00 Ry     beta= 0.70
     Davidson diagonalization with overlap
     ethr =  1.00E-13,  avg # of iterations =  5.4

     total cpu time spent up to now is      872.2 secs

     total energy              =    -156.47411280 Ry
     estimated scf accuracy    <          3.8E-12 Ry

     iteration #  7     ecut=   100.00 Ry     beta= 0.70
     Davidson diagonalization with overlap
     ethr =  1.00E-13,  avg # of iterations =  1.1

     total cpu time spent up to now is      885.0 secs

     End of self-consistent calculation

          k = 0.0000 0.0000 0.0000 ( 24653 PWs)   bands (ev):

   -24.0390 -24.0307  -9.5577  -9.4740  -9.2897  -9.2527  -9.2210  -9.1614
    -6.0880  -5.1614  -4.5152  -4.3639  -1.7722  -0.8798  -0.8260  -0.4803
    -0.0962  -0.0798  -0.0373   0.0869   0.2521   0.6373   0.6566   0.6928

          k = 0.0000 0.0000 0.3615 ( 24714 PWs)   bands (ev):

   -24.0316 -24.0258  -9.4660  -9.4649  -9.4411  -9.4096  -9.2724  -9.2521
    -5.6012  -4.9101  -4.6802  -4.5829  -1.3964  -1.1478  -0.6900  -0.6492
    -0.5044  -0.3902  -0.0347   0.2450   0.4432   0.4717   0.5513   0.6927

          k = 0.0000 0.0000-0.7231 ( 24728 PWs)   bands (ev):

   -24.0225 -24.0225  -9.6764  -9.6763  -9.3270  -9.3270  -9.2821  -9.2821
    -4.9062  -4.9058  -4.8271  -4.8266  -1.1567  -1.1561  -1.1441  -1.1427
    -0.1130  -0.1124  -0.0534  -0.0515   0.5095   0.5095   0.5266   0.5269

          k = 0.0000 0.2436 0.0000 ( 24698 PWs)   bands (ev):

   -24.0378 -24.0319  -9.5295  -9.4452  -9.3396  -9.2861  -9.2121  -9.1700
    -5.8943  -5.0749  -4.7901  -4.4894  -1.4212  -1.0071  -0.9555  -0.1897
    -0.1781  -0.1696   0.1269   0.2493   0.3183   0.3389   0.5516   0.6285

          k = 0.0000 0.2436 0.3615 ( 24686 PWs)   bands (ev):

   -24.0307 -24.0266  -9.5085  -9.4705  -9.3958  -9.3834  -9.2809  -9.2727
    -5.4973  -4.9816  -4.7220  -4.6226  -1.2097  -1.1714  -0.9714  -0.4150
    -0.3759  -0.1911  -0.1717   0.2956   0.3743   0.4138   0.5233   0.5773

          k = 0.0000 0.2436-0.7231 ( 24714 PWs)   bands (ev):

   -24.0225 -24.0225  -9.6893  -9.6892  -9.3096  -9.3096  -9.2813  -9.2813
    -5.1771  -5.1771  -4.5458  -4.5458  -1.2748  -1.2742  -0.9723  -0.9715
    -0.0441  -0.0440  -0.0105  -0.0088   0.3460   0.3460   0.5186   0.5188

          k = 0.0000-0.4872 0.0000 ( 24714 PWs)   bands (ev):

   -24.0348 -24.0348  -9.4509  -9.4509  -9.3621  -9.3621  -9.1908  -9.1908
    -5.4079  -5.4079  -4.7678  -4.7678  -1.1260  -1.1260  -0.4997  -0.4997
    -0.2548  -0.2548   0.2301   0.2301   0.3724   0.3724   0.4889   0.4889

          k = 0.0000-0.4872 0.3615 ( 24732 PWs)   bands (ev):

   -24.0287 -24.0287  -9.5073  -9.5073  -9.3437  -9.3437  -9.3078  -9.3078
    -5.2382  -5.2382  -4.6970  -4.6970  -1.1532  -1.1532  -0.7472  -0.7472
    -0.1420  -0.1420   0.1402   0.1402   0.2843   0.2843   0.4996   0.4996

          k = 0.0000-0.4872-0.7231 ( 24672 PWs)   bands (ev):

   -24.0225 -24.0225  -9.7012  -9.7012  -9.2953  -9.2953  -9.2785  -9.2785
    -5.3021  -5.3021  -4.4107  -4.4107  -1.3632  -1.3632  -0.7347  -0.7347
    -0.1181  -0.1181   0.0684   0.0684   0.1541   0.1541   0.5553   0.5553

          k = 0.2498 0.0000 0.0000 ( 24639 PWs)   bands (ev):

   -24.0377 -24.0319  -9.5207  -9.4557  -9.3308  -9.3014  -9.2121  -9.1700
    -5.9032  -5.1966  -4.5523  -4.5132  -1.5842  -0.7432  -0.7363  -0.6006
    -0.0554  -0.0234   0.0464   0.1009   0.2084   0.2229   0.6026   0.6379

          k = 0.2498 0.0000 0.3615 ( 24716 PWs)   bands (ev):

   -24.0307 -24.0266  -9.4996  -9.4816  -9.4232  -9.3608  -9.2961  -9.2612
    -5.4562  -4.8986  -4.7103  -4.7092  -1.3645  -1.1294  -0.9747  -0.4713
    -0.4515  -0.1859   0.0371   0.1717   0.3053   0.4353   0.6188   0.6483

          k = 0.2498 0.0000-0.7231 ( 24710 PWs)   bands (ev):

   -24.0225 -24.0225  -9.6937  -9.6936  -9.3143  -9.3143  -9.2788  -9.2788
    -4.9816  -4.9813  -4.7225  -4.7222  -1.6174  -1.6169  -0.7147  -0.7144
    -0.1238  -0.1235   0.1949   0.1963   0.3202   0.3202   0.5604   0.5607

          k = 0.2498 0.2436 0.0000 ( 24684 PWs)   bands (ev):

[...]
     1.00702463     0.00000000     0.00000000
     0.00000000     1.02510173     0.00000000
     0.00000000     0.00000000     0.68787898
New lattice vectors in INITIAL alat:
     1.00702463     0.00000000     0.00000000
     0.00000000     1.02510173     0.00000000
     0.00000000     0.00000000     0.68787898
New lattice vectors in NEW alat (for information only):
     1.00000000     0.00000000     0.00000000
     0.00000000     1.01795100     0.00000000
     0.00000000     0.00000000     0.68308060
Discrepancy in bohr =     0.000000    0.000000    0.000000
     new conv_thr            =            1.0E-12 Ry

     new unit-cell volume =   1462.64455 a.u.^3 (   216.74156 Ang^3 )
     density =      2.55909 g/cm^3

CELL_PARAMETERS (alat= 12.72349920)
   1.007024626   0.000000000   0.000000000
   0.000000000   1.025101725   0.000000000
   0.000000000   0.000000000   0.687878982

ATOMIC_POSITIONS (crystal)
Ba               0.5000000000        0.5000000000        0.5000163392
Ba               0.0000000000        0.0000000000        0.9999836608
B                0.6141966727        0.2422102342       -0.0000057352
B                0.3858033273        0.7577897658       -0.0000057352
B                0.1141966727        0.2577897658        0.5000057352
B                0.8858033273        0.7422102342        0.5000057352
H                0.4394030413        0.2908555692       -0.0000215049
H                0.5605969587        0.7091444308       -0.0000215049
H                0.9394030413        0.2091444308        0.5000215049
H                0.0605969587        0.7908555692        0.5000215049
H                0.7208817242        0.3878960314        0.0000198559
H                0.2791182758        0.6121039686        0.0000198559
H                0.2208817242        0.1121039686        0.4999801441
H                0.7791182758        0.8878960314        0.4999801441
H                0.6450297372        0.1464688864        0.7807036548
H                0.3549702628        0.8535311136        0.7807036548
H                0.1450297372        0.3535311136        0.7192963452
H                0.8549702628        0.6464688864        0.7192963452
H                0.3549856714        0.8535186658        0.2192966269
H                0.6450143286        0.1464813342        0.2192966269
H                0.8549856714        0.6464813342        0.2807033731
H                0.1450143286        0.3535186658        0.2807033731



     Writing config-only to output data dir ./pwscf.save/ :
     XML data file
     NEW-OLD atomic charge density approx. for the potential

     total cpu time spent up to now is     9080.7 secs

     Self-consistent Calculation

     iteration #  1     ecut=   100.00 Ry     beta= 0.70
     Davidson diagonalization with overlap
     ethr =  1.00E-06,  avg # of iterations =  1.0

     Threshold (ethr) on eigenvalues was too large:
     Diagonalizing with lowered threshold

     Davidson diagonalization with overlap
     ethr =  7.44E-13,  avg # of iterations =  4.4

     total cpu time spent up to now is     9115.8 secs

     total energy              =    -156.47439846 Ry
     estimated scf accuracy    <          1.5E-10 Ry

     iteration #  2     ecut=   100.00 Ry     beta= 0.70
     Davidson diagonalization with overlap
     ethr =  3.09E-13,  avg # of iterations =  2.0

     total cpu time spent up to now is     9131.8 secs

     total energy              =    -156.47439846 Ry
     estimated scf accuracy    <          1.8E-11 Ry

     iteration #  3     ecut=   100.00 Ry     beta= 0.70
     Davidson diagonalization with overlap
     ethr =  1.00E-13,  avg # of iterations =  2.0

     total cpu time spent up to now is     9146.2 secs

     End of self-consistent calculation

          k = 0.0000 0.0000 0.0000 ( 24653 PWs)   bands (ev):

   -24.0118 -24.0035  -9.5489  -9.4688  -9.2746  -9.2351  -9.1997  -9.1391
    -6.1017  -5.1728  -4.5191  -4.3908  -1.7975  -0.8800  -0.8321  -0.4793
    -0.1561  -0.1331  -0.0241   0.0232   0.2574   0.6250   0.6376   0.6777

          k = 0.0000 0.0000 0.3634 ( 24714 PWs)   bands (ev):

   -24.0039 -23.9981  -9.4590  -9.4534  -9.4357  -9.3991  -9.2559  -9.2333
    -5.5955  -4.9017  -4.6958  -4.6137  -1.4055  -1.1883  -0.7735  -0.6511
    -0.4976  -0.3944  -0.0376   0.2334   0.4331   0.4435   0.5172   0.6602

          k = 0.0000 0.0000-0.7269 ( 24728 PWs)   bands (ev):

   -23.9943 -23.9943  -9.6825  -9.6825  -9.3083  -9.3083  -9.2650  -9.2650
    -4.8818  -4.8817  -4.8589  -4.8589  -1.2094  -1.2092  -1.1674  -1.1671
    -0.1087  -0.1085  -0.0532  -0.0532   0.4659   0.4659   0.5107   0.5110

          k = 0.0000 0.2439 0.0000 ( 24698 PWs)   bands (ev):

   -24.0106 -24.0047  -9.5203  -9.4392  -9.3248  -9.2702  -9.1906  -9.1478
    -5.9084  -5.0982  -4.7837  -4.5098  -1.4569  -1.0209  -0.9547  -0.2051
    -0.1807  -0.1759   0.0689   0.2012   0.3051   0.3168   0.5387   0.6101

          k = 0.0000 0.2439 0.3634 ( 24686 PWs)   bands (ev):

   -24.0031 -23.9989  -9.5006  -9.4642  -9.3850  -9.3724  -9.2651  -9.2548
    -5.4919  -4.9755  -4.7367  -4.6495  -1.2260  -1.2110  -1.0144  -0.4297
    -0.3997  -0.1860  -0.1852   0.2759   0.3723   0.3837   0.4985   0.5474

          k = 0.0000 0.2439-0.7269 ( 24714 PWs)   bands (ev):

   -23.9943 -23.9943  -9.6949  -9.6949  -9.2910  -9.2910  -9.2645  -9.2645
    -5.1795  -5.1794  -4.5505  -4.5505  -1.3460  -1.3460  -0.9808  -0.9806
    -0.0365  -0.0365  -0.0129  -0.0128   0.3293   0.3296   0.4815   0.4816

          k = 0.0000-0.4878 0.0000 ( 24714 PWs)   bands (ev):

   -24.0076 -24.0076  -9.4416  -9.4416  -9.3488  -9.3488  -9.1690  -9.1690
    -5.4262  -5.4262  -4.7732  -4.7732  -1.1580  -1.1580  -0.5044  -0.5044
    -0.2565  -0.2565   0.2112   0.2112   0.3268   0.3268   0.4636   0.4636

          k = 0.0000-0.4878 0.3634 ( 24732 PWs)   bands (ev):

   -24.0010 -24.0010  -9.5003  -9.5003  -9.3324  -9.3324  -9.2913  -9.2913
    -5.2335  -5.2335  -4.7159  -4.7159  -1.1962  -1.1962  -0.7608  -0.7608
    -0.1690  -0.1690   0.1497   0.1497   0.2527   0.2527   0.4794   0.4794

          k = 0.0000-0.4878-0.7269 ( 24672 PWs)   bands (ev):

   -23.9943 -23.9943  -9.7065  -9.7065  -9.2765  -9.2765  -9.2620  -9.2620
    -5.3053  -5.3053  -4.4137  -4.4137  -1.4387  -1.4387  -0.7504  -0.7504
    -0.0954  -0.0954   0.0692   0.0692   0.1217   0.1217   0.5288   0.5288

          k = 0.2483 0.0000 0.0000 ( 24639 PWs)   bands (ev):

   -24.0106 -24.0047  -9.5114  -9.4486  -9.3164  -9.2847  -9.1906  -9.1478
    -5.9186  -5.2096  -4.5589  -4.5375  -1.6043  -0.7612  -0.7400  -0.6111
    -0.0779  -0.0294   0.0028   0.0407   0.1989   0.2258   0.5814   0.6187

          k = 0.2483 0.0000 0.3634 ( 24716 PWs)   bands (ev):

   -24.0031 -23.9989  -9.4926  -9.4735  -9.4121  -9.3499  -9.2797  -9.2434
    -5.4546  -4.8913  -4.7393  -4.7257  -1.3790  -1.1518  -1.0175  -0.4724
    -0.4537  -0.2048  -0.0001   0.1517   0.2900   0.4247   0.5842   0.6144

          k = 0.2483 0.0000-0.7269 ( 24710 PWs)   bands (ev):

   -23.9943 -23.9943  -9.6990  -9.6990  -9.2958  -9.2957  -9.2614  -9.2614
    -5.0048  -5.0048  -4.7085  -4.7085  -1.6484  -1.6484  -0.7446  -0.7445
    -0.1128  -0.1127   0.1690   0.1690   0.2890   0.2891   0.5316   0.5319

          k = 0.2483 0.2439 0.0000 ( 24684 PWs)   bands (ev):

   -24.0097 -24.0055  -9.5381  -9.4242  -9.3653  -9.2427  -9.1841  -9.1538
    -5.7827  -5.1848  -4.7794  -4.5594  -1.3373  -0.9960  -0.7729  -0.3151
    -0.2367  -0.1860   0.0792   0.2171   0.2261   0.3238   0.4192   0.5432

          k = 0.2483 0.2439 0.3634 ( 24696 PWs)   bands (ev):

   -24.0024 -23.9995  -9.4941  -9.4580  -9.4457  -9.3316  -9.2891  -9.2371
    -5.3685  -4.9313  -4.8200  -4.7193  -1.3471  -1.1265  -1.0316  -0.4803
    -0.3128  -0.1465  -0.0360   0.1870   0.2582   0.3790   0.5196   0.5996

          k = 0.2483 0.2439-0.7269 ( 24706 PWs)   bands (ev):

   -23.9943 -23.9943  -9.7057  -9.6840  -9.3147  -9.2787  -9.2679  -9.2624
    -5.1993  -5.0164  -4.6907  -4.5021  -1.6404  -1.5409  -0.8427  -0.7109
    -0.1610  -0.1515   0.1576   0.2290   0.2954   0.3526   0.4963   0.5016

          k = 0.2483-0.4878 0.0000 ( 24698 PWs)   bands (ev):

   -24.0076 -24.0076  -9.5128  -9.5128  -9.2771  -9.2771  -9.1687  -9.1687
    -5.4379  -5.4379  -4.7525  -4.7525  -1.0726  -1.0726  -0.5226  -0.5226
    -0.2939  -0.2939   0.1516   0.1516   0.3649   0.3649   0.4128   0.4128

          k = 0.2483-0.4878 0.3634 ( 24700 PWs)   bands (ev):

   -24.0009 -24.0009  -9.4884  -9.4884  -9.3903  -9.3903  -9.2514  -9.2514
    -5.1540  -5.1540  -4.7792  -4.7792  -1.2676  -1.2676  -0.7194  -0.7194
    -0.1764  -0.1764   0.1461   0.1461   0.2958   0.2958   0.4907   0.4907

          k = 0.2483-0.4878-0.7269 ( 24716 PWs)   bands (ev):

   -23.9943 -23.9943  -9.6916  -9.6916  -9.2980  -9.2980  -9.2678  -9.2678
    -5.2029  -5.2029  -4.4921  -4.4921  -1.5300  -1.5300  -0.8426  -0.8426
    -0.0549  -0.0549   0.0764   0.0764   0.3466   0.3466   0.5042   0.5042

          k =-0.4965 0.0000 0.0000 ( 24692 PWs)   bands (ev):

   -24.0076 -24.0076  -9.4221  -9.4221  -9.3748  -9.3748  -9.1691  -9.1691
    -5.5026  -5.5026  -4.6263  -4.6263  -1.1874  -1.1874  -0.3907  -0.3907
    -0.0380  -0.0380  -0.0259  -0.0259   0.0588   0.0588   0.4665   0.4665

          k =-0.4965 0.0000 0.3634 ( 24692 PWs)   bands (ev):

   -24.0010 -24.0010  -9.5028  -9.5028  -9.3513  -9.3513  -9.2787  -9.2787
    -5.1205  -5.1205  -4.7872  -4.7872  -1.3062  -1.3062  -0.7576  -0.7576
    -0.1688  -0.1688   0.0066   0.0066   0.3727   0.3727   0.5712   0.5712

          k =-0.4965 0.0000-0.7269 ( 24764 PWs)   bands (ev):

   -23.9943 -23.9943  -9.7144  -9.7144  -9.2860  -9.2860  -9.2561  -9.2561
    -5.0566  -5.0566  -4.6273  -4.6273  -1.8509  -1.8509  -0.4620  -0.4620
    -0.1131  -0.1131   0.0111   0.0111   0.4723   0.4723   0.4785   0.4785

          k =-0.4965 0.2439 0.0000 ( 24654 PWs)   bands (ev):

   -24.0076 -24.0076  -9.5109  -9.5109  -9.2822  -9.2822  -9.1688  -9.1688
    -5.4778  -5.4778  -4.6774  -4.6774  -1.0971  -1.0971  -0.4168  -0.4168
    -0.2318  -0.2318  -0.0553  -0.0553   0.2840   0.2840   0.4590   0.4590

          k =-0.4965 0.2439 0.3634 ( 24712 PWs)   bands (ev):

   -24.0009 -24.0009  -9.4900  -9.4900  -9.3946  -9.3946  -9.2500  -9.2500
    -5.0819  -5.0819  -4.8303  -4.8303  -1.3133  -1.3133  -0.7500  -0.7500
    -0.1204  -0.1204   0.0418   0.0418   0.3785   0.3785   0.5120   0.5120

          k =-0.4965 0.2439-0.7269 ( 24708 PWs)   bands (ev):

   -23.9943 -23.9943  -9.6958  -9.6958  -9.3009  -9.3009  -9.2664  -9.2664
    -5.0623  -5.0623  -4.6151  -4.6151  -1.7534  -1.7534  -0.6805  -0.6805
    -0.0669  -0.0669   0.0798   0.0798   0.4129   0.4129   0.5609   0.5609

          k =-0.4965-0.4878 0.0000 ( 24600 PWs)   bands (ev):

   -24.0076 -24.0076  -9.5548  -9.5548  -9.2346  -9.2346  -9.1684  -9.1684
    -5.4503  -5.4503  -4.7304  -4.7304  -0.9713  -0.9713  -0.5590  -0.5590
    -0.3274  -0.3274   0.1178   0.1178   0.3375   0.3375   0.3991   0.3991

          k =-0.4965-0.4878 0.3634 ( 24680 PWs)   bands (ev):

   -24.0009 -24.0009  -9.4618  -9.4618  -9.4418  -9.4418  -9.2326  -9.2326
    -5.0230  -5.0230  -4.8933  -4.8933  -1.3051  -1.3051  -0.7941  -0.7941
    -0.0161  -0.0161   0.1784   0.1784   0.2658   0.2658   0.4494   0.4494

          k =-0.4965-0.4878-0.7269 ( 24720 PWs)   bands (ev):

   -23.9942 -23.9942  -9.6751  -9.6751  -9.3216  -9.3216  -9.2729  -9.2729
    -5.0683  -5.0683  -4.6023  -4.6023  -1.6011  -1.6011  -0.9683  -0.9683
     0.0968   0.0968   0.2039   0.2039   0.2910   0.2910   0.5419   0.5419

     highest occupied level (ev):     0.6777

!    total energy              =    -156.47439846 Ry
     estimated scf accuracy    <          5.4E-13 Ry

     The total energy is the sum of the following terms:
     one-electron contribution =     -24.08382570 Ry
     hartree contribution      =      26.21733544 Ry
     xc contribution           =     -49.10722873 Ry
     ewald contribution        =    -109.50067947 Ry

     convergence has been achieved in   3 iterations

     Forces acting on atoms (cartesian axes, Ry/au):

     atom    1 type  2   force =     0.00000000    0.00000000   -0.00001704
     atom    2 type  2   force =     0.00000000    0.00000000    0.00001704
     atom    3 type  1   force =    -0.00000236   -0.00000043    0.00000808
     atom    4 type  1   force =     0.00000236    0.00000043    0.00000808
     atom    5 type  1   force =    -0.00000236    0.00000043   -0.00000808
     atom    6 type  1   force =     0.00000236   -0.00000043   -0.00000808
     atom    7 type  3   force =     0.00000240    0.00000466    0.00000398
     atom    8 type  3   force =    -0.00000240   -0.00000466    0.00000398
     atom    9 type  3   force =     0.00000240   -0.00000466   -0.00000398
     atom   10 type  3   force =    -0.00000240    0.00000466   -0.00000398
     atom   11 type  3   force =    -0.00000630   -0.00000233   -0.00001424
     atom   12 type  3   force =     0.00000630    0.00000233   -0.00001424
     atom   13 type  3   force =    -0.00000630    0.00000233    0.00001424
     atom   14 type  3   force =     0.00000630   -0.00000233    0.00001424
     atom   15 type  3   force =     0.00000400    0.00001043    0.00000781
     atom   16 type  3   force =    -0.00000400   -0.00001043    0.00000781
     atom   17 type  3   force =     0.00000400   -0.00001043   -0.00000781
     atom   18 type  3   force =    -0.00000400    0.00001043   -0.00000781
     atom   19 type  3   force =    -0.00000238    0.00001023    0.00000153
     atom   20 type  3   force =     0.00000238   -0.00001023    0.00000153
     atom   21 type  3   force =    -0.00000238   -0.00001023   -0.00000153
     atom   22 type  3   force =     0.00000238    0.00001023   -0.00000153

     Total force =     0.000057     Total SCF correction =     0.000000


     Computing stress (Cartesian axis) and pressure

          total   stress  (Ry/bohr**3)                   (kbar)     P=       -3.68
  -0.00002498   0.00000000   0.00000000           -3.67        0.00        0.00
   0.00000000  -0.00002501   0.00000000            0.00       -3.68        0.00
   0.00000000   0.00000000  -0.00002502            0.00        0.00       -3.68

     Volume is kept fixed: isostatic pressure set to zero
     Message from routine bfgs:
     history already reset at previous step: exiting
     Energy error            =      4.1E-09 Ry
     Gradient error          =      1.7E-05 Ry/Bohr
     Cell gradient error     =      3.5E-03 kbar
ibrav =      8
 celldm(1) =     12.81287702
 celldm(2) =      1.01795100
 celldm(3) =      0.68308060
Input lattice vectors:
     1.00702463     0.00000000     0.00000000
     0.00000000     1.02510173     0.00000000
     0.00000000     0.00000000     0.68787898
New lattice vectors in INITIAL alat:
     1.00702463     0.00000000     0.00000000
     0.00000000     1.02510173     0.00000000
     0.00000000     0.00000000     0.68787898
New lattice vectors in NEW alat (for information only):
     1.00000000     0.00000000     0.00000000
     0.00000000     1.01795100     0.00000000
     0.00000000     0.00000000     0.68308060
Discrepancy in bohr =     0.000000    0.000000    0.000000

     bfgs failed after  57 scf cycles and  56 bfgs steps, convergence not achieved
     (criteria: energy <  1.0E-05 Ry, force <  1.0E-05 Ry/Bohr, cell <  5.0E-01 kbar)

     End of BFGS Geometry Optimization

     Final enthalpy           =    -156.4743984604 Ry

     File ./pwscf.bfgs deleted, as requested
Begin final coordinates
     new unit-cell volume =   1462.64455 a.u.^3 (   216.74156 Ang^3 )
     density =      2.55909 g/cm^3

CELL_PARAMETERS (alat= 12.72349920)
   1.007024626   0.000000000   0.000000000
   0.000000000   1.025101725   0.000000000
   0.000000000   0.000000000   0.687878982

ATOMIC_POSITIONS (crystal)
Ba               0.5000000000        0.5000000000        0.5000163392
Ba               0.0000000000        0.0000000000        0.9999836608
B                0.6141966727        0.2422102342       -0.0000057352
B                0.3858033273        0.7577897658       -0.0000057352
B                0.1141966727        0.2577897658        0.5000057352
B                0.8858033273        0.7422102342        0.5000057352
H                0.4394030413        0.2908555692       -0.0000215049
H                0.5605969587        0.7091444308       -0.0000215049
H                0.9394030413        0.2091444308        0.5000215049
H                0.0605969587        0.7908555692        0.5000215049
H                0.7208817242        0.3878960314        0.0000198559
H                0.2791182758        0.6121039686        0.0000198559
H                0.2208817242        0.1121039686        0.4999801441
H                0.7791182758        0.8878960314        0.4999801441
H                0.6450297372        0.1464688864        0.7807036548
H                0.3549702628        0.8535311136        0.7807036548
H                0.1450297372        0.3535311136        0.7192963452
H                0.8549702628        0.6464688864        0.7192963452
H                0.3549856714        0.8535186658        0.2192966269
H                0.6450143286        0.1464813342        0.2192966269
H                0.8549856714        0.6464813342        0.2807033731
H                0.1450143286        0.3535186658        0.2807033731
End final coordinates



     Writing config-only to output data dir ./pwscf.save/ :
     XML data file

     Writing all to output data dir ./pwscf.save/ :
     XML data file, charge density, pseudopotentials, collected wavefunctions

     init_run     :     10.51s CPU     12.11s WALL (       1 calls)
     electrons    :   7363.41s CPU   7424.04s WALL (      57 calls)
     update_pot   :     13.16s CPU     14.67s WALL (      56 calls)
     forces       :    185.15s CPU    187.22s WALL (      57 calls)
     stress       :   1517.57s CPU   1521.60s WALL (      57 calls)

     Called by init_run:
     wfcinit      :      7.89s CPU      7.98s WALL (       1 calls)
     potinit      :      0.59s CPU      1.09s WALL (       1 calls)
     hinit0       :      1.11s CPU      2.07s WALL (       1 calls)

     Called by electrons:
     c_bands      :   6470.70s CPU   6515.33s WALL (     420 calls)
     sum_band     :    770.53s CPU    779.72s WALL (     420 calls)
     v_of_rho     :     53.08s CPU     55.74s WALL (     425 calls)
     newd         :     72.93s CPU     74.43s WALL (     425 calls)
     mix_rho      :      5.64s CPU      6.10s WALL (     420 calls)

     Called by c_bands:
     init_us_2    :    148.60s CPU    150.52s WALL (   25785 calls)
     cegterg      :   5738.90s CPU   5780.98s WALL (   11340 calls)

     Called by *egterg:
     cdiaghg      :     73.86s CPU     74.42s WALL (   42619 calls)
     h_psi        :   4060.02s CPU   4093.66s WALL (   45562 calls)
     s_psi        :    725.27s CPU    728.76s WALL (   45562 calls)
     g_psi        :      8.88s CPU      8.94s WALL (   34195 calls)

     Called by h_psi:
     h_psi:calbec :    678.01s CPU    681.69s WALL (   45562 calls)
     vloc_psi     :   2645.17s CPU   2672.13s WALL (   45562 calls)
     add_vuspsi   :    725.97s CPU    729.23s WALL (   45562 calls)

     General routines
     calbec       :   1311.13s CPU   1316.93s WALL (   64597 calls)
     fft          :     37.42s CPU     42.94s WALL (    6944 calls)
     ffts         :      2.49s CPU      3.15s WALL (     845 calls)
     fftw         :   2708.15s CPU   2735.18s WALL ( 1898860 calls)
     interpolate  :      3.98s CPU      4.80s WALL (     425 calls)
     davcio       :      0.01s CPU      0.06s WALL (      27 calls)

     Parallel routines

     PWSCF        :      2h31m CPU      2h32m WALL


   This run was terminated on:  18: 3:36  11Jul2024            

=------------------------------------------------------------------------------=
   JOB DONE.
=------------------------------------------------------------------------------=
