
     Program PWSCF v.7.3.1 starts on 12Jul2024 at 15: 7: 2 

     This program is part of the open-source Quantum ESPRESSO suite
     for quantum simulation of materials; please cite
         "P. Giannozzi et al., J. Phys.:Condens. Matter 21 395502 (2009);
         "P. Giannozzi et al., J. Phys.:Condens. Matter 29 465901 (2017);
         "P. Giannozzi et al., J. Chem. Phys. 152 154105 (2020);
          URL http://www.quantum-espresso.org", 
     in publications or presentations arising from this work. More details at
     http://www.quantum-espresso.org/quote

     Parallel version (MPI), running on    16 processors

     MPI processes distributed on     1 nodes
     61149 MiB available memory on the printing compute node when the environment starts

     Waiting for input...
     Reading input from standard input

     Current dimensions of program PWSCF are:
     Max number of different atomic species (ntypx) = 10
     Max number of k-points (npk) =  40000
     Max angular momentum in pseudopotentials (lmaxx) =  4

     R & G space division:  proc/nbgrp/npool/nimage =      16
     Subspace diagonalization in iterative solution of the eigenvalue problem:
     a serial algorithm will be used


     Parallelization info
     --------------------
     sticks:   dense  smooth     PW     G-vecs:    dense   smooth      PW
     Min         667     333     91                35441    12531    1805
     Max         668     334     92                35444    12534    1808
     Sum       10681    5331   1465               567067   200519   28893

     Using Slab Decomposition


     Title: 
     volume variation                                                           


     bravais-lattice index     =            8
     lattice parameter (alat)  =      12.7853  a.u.
     unit-cell volume          =    1484.0491 (a.u.)^3
     number of atoms/cell      =           22
     number of atomic types    =            3
     number of electrons       =        48.00
     number of Kohn-Sham states=           24
     kinetic-energy cutoff     =     100.0000  Ry
     charge density cutoff     =     800.0000  Ry
     scf convergence threshold =      1.0E-10
     mixing beta               =       0.7000
     number of iterations used =            8  plain     mixing
     energy convergence thresh.=      1.0E-05
     force convergence thresh. =      1.0E-05
     press convergence thresh. =      5.0E-01
     Exchange-correlation= PBESOL
                           (   1   4  10   8   0   0   0)
     nstep                     =          300


     celldm(1)=  12.785265  celldm(2)=   1.025571  celldm(3)=   0.692394
     celldm(4)=   0.000000  celldm(5)=   0.000000  celldm(6)=   0.000000

     crystal axes: (cart. coord. in units of alat)
               a(1) = (   1.000000   0.000000   0.000000 )  
               a(2) = (   0.000000   1.025571   0.000000 )  
               a(3) = (   0.000000   0.000000   0.692394 )  

     reciprocal axes: (cart. coord. in units 2 pi/alat)
               b(1) = (  1.000000  0.000000  0.000000 )  
               b(2) = (  0.000000  0.975067  0.000000 )  
               b(3) = (  0.000000  0.000000  1.444264 )  


     PseudoPot. # 1 for B  read from file:
     /home/mehlhorn/pseudos/b_pbesol_v1.4.uspp.F.UPF
     MD5 check sum: 369b69bef2c3aeed4453bd8b804fd6a8
     Pseudo is Ultrasoft + core correction, Zval =  3.0
     Generated by new atomic code, or converted to UPF format
     Using radial grid of  781 points,  4 beta functions with: 
                l(1) =   0
                l(2) =   0
                l(3) =   1
                l(4) =   1
     Q(r) pseudized with  8 coefficients,  rinner =    1.100   1.100   1.100


     PseudoPot. # 2 for Ba read from file:
     /home/mehlhorn/pseudos/Ba.nc.z_10.oncvpsp4.dojo.v4-sp.upf
     MD5 check sum: c10ed334bb677c0554edec7181ce9143
     Pseudo is Norm-conserving + core correction, Zval = 10.0
     Generated using ONCVPSP code by D. R. Hamann
     Using radial grid of 1938 points,  8 beta functions with: 
                l(1) =   0
                l(2) =   0
                l(3) =   1
                l(4) =   1
                l(5) =   2
                l(6) =   2
                l(7) =   3
                l(8) =   3

     PseudoPot. # 3 for H  read from file:
     /home/mehlhorn/pseudos/H_ONCV_PBEsol-1.0.upf
     MD5 check sum: 398ef8f67c0a7342c05c87c5e19ea467
     Pseudo is Norm-conserving, Zval =  1.0
     Generated using ONCVPSP code by D. R. Hamann
     Using radial grid of 1180 points,  2 beta functions with: 
                l(1) =   0
                l(2) =   0

     atomic species   valence    mass     pseudopotential
     B                 3.00    10.81100     B ( 1.00)
     Ba               10.00   137.32700     Ba( 1.00)
     H                 1.00     1.00794     H ( 1.00)

      4 Sym. Ops. (no inversion) found ( 2 have fractional translation)



   Cartesian axes

     site n.     atom                  positions (alat units)
         1        Ba     tau(   1) = (   0.5000000   0.5127855   0.3462657  )
         2        Ba     tau(   2) = (   0.0000000   0.0000000   0.6923255  )
         3        B      tau(   3) = (   0.6102570   0.2453190   0.0000455  )
         4        B      tau(   4) = (   0.3897430   0.7802519   0.0000455  )
         5        B      tau(   5) = (   0.1102570   0.2674665   0.3461516  )
         6        B      tau(   6) = (   0.8897430   0.7581045   0.3461516  )
         7        H      tau(   7) = (   0.4340973   0.2996264   0.0001599  )
         8        H      tau(   8) = (   0.5659027   0.7259445   0.0001599  )
         9        H      tau(   9) = (   0.9340973   0.2131590   0.3460372  )
        10        H      tau(  10) = (   0.0659027   0.8124119   0.3460372  )
        11        H      tau(  11) = (   0.7220603   0.3933629  -0.0000058  )
        12        H      tau(  12) = (   0.2779397   0.6322081  -0.0000058  )
        13        H      tau(  13) = (   0.2220603   0.1194226   0.3462029  )
        14        H      tau(  14) = (   0.7779397   0.9061483   0.3462029  )
        15        H      tau(  15) = (   0.6392499   0.1457279   0.5404125  )
        16        H      tau(  16) = (   0.3607501   0.8798430   0.5404125  )
        17        H      tau(  17) = (   0.1392499   0.3670576   0.4981787  )
        18        H      tau(  18) = (   0.8607501   0.6585133   0.4981787  )
        19        H      tau(  19) = (   0.3605328   0.8798946   0.1519977  )
        20        H      tau(  20) = (   0.6394672   0.1456763   0.1519977  )
        21        H      tau(  21) = (   0.8605328   0.6584617   0.1941994  )
        22        H      tau(  22) = (   0.1394672   0.3671092   0.1941994  )

     number of k points=    27
                       cart. coord. in units 2pi/alat
        k(    1) = (   0.0000000   0.0000000   0.0000000), wk =   0.0312500
        k(    2) = (   0.0000000   0.0000000   0.3610660), wk =   0.0625000
        k(    3) = (   0.0000000   0.0000000  -0.7221320), wk =   0.0312500
        k(    4) = (   0.0000000   0.2437667   0.0000000), wk =   0.0625000
        k(    5) = (   0.0000000   0.2437667   0.3610660), wk =   0.1250000
        k(    6) = (   0.0000000   0.2437667  -0.7221320), wk =   0.0625000
        k(    7) = (   0.0000000  -0.4875333   0.0000000), wk =   0.0312500
        k(    8) = (   0.0000000  -0.4875333   0.3610660), wk =   0.0625000
        k(    9) = (   0.0000000  -0.4875333  -0.7221320), wk =   0.0312500
        k(   10) = (   0.2500000   0.0000000   0.0000000), wk =   0.0625000
        k(   11) = (   0.2500000   0.0000000   0.3610660), wk =   0.1250000
        k(   12) = (   0.2500000   0.0000000  -0.7221320), wk =   0.0625000
        k(   13) = (   0.2500000   0.2437667   0.0000000), wk =   0.1250000
        k(   14) = (   0.2500000   0.2437667   0.3610660), wk =   0.2500000
        k(   15) = (   0.2500000   0.2437667  -0.7221320), wk =   0.1250000
        k(   16) = (   0.2500000  -0.4875333   0.0000000), wk =   0.0625000
        k(   17) = (   0.2500000  -0.4875333   0.3610660), wk =   0.1250000
        k(   18) = (   0.2500000  -0.4875333  -0.7221320), wk =   0.0625000
        k(   19) = (  -0.5000000   0.0000000   0.0000000), wk =   0.0312500
        k(   20) = (  -0.5000000   0.0000000   0.3610660), wk =   0.0625000
        k(   21) = (  -0.5000000   0.0000000  -0.7221320), wk =   0.0312500
        k(   22) = (  -0.5000000   0.2437667   0.0000000), wk =   0.0625000
        k(   23) = (  -0.5000000   0.2437667   0.3610660), wk =   0.1250000
        k(   24) = (  -0.5000000   0.2437667  -0.7221320), wk =   0.0625000
        k(   25) = (  -0.5000000  -0.4875333   0.0000000), wk =   0.0312500
        k(   26) = (  -0.5000000  -0.4875333   0.3610660), wk =   0.0625000
        k(   27) = (  -0.5000000  -0.4875333  -0.7221320), wk =   0.0312500

     Dense  grid:   567067 G-vectors     FFT dimensions: ( 120, 120,  80)

     Smooth grid:   200519 G-vectors     FFT dimensions: (  90,  90,  60)

     Estimated max dynamical RAM per process >     122.13 MB

     Estimated total dynamical RAM >       1.91 GB

     Initial potential from superposition of free atoms

     starting charge      47.9682, renormalised to      48.0000
     Starting wfcs are   42 randomized atomic wfcs

     total cpu time spent up to now is        4.9 secs

     Self-consistent Calculation

     iteration #  1     ecut=   100.00 Ry     beta= 0.70
     Davidson diagonalization with overlap
     ethr =  1.00E-02,  avg # of iterations =  2.0

     total cpu time spent up to now is       12.0 secs

     total energy              =    -155.94644251 Ry
     estimated scf accuracy    <       1.99932215 Ry

     iteration #  2     ecut=   100.00 Ry     beta= 0.70
     Davidson diagonalization with overlap
     ethr =  4.17E-03,  avg # of iterations =  2.0

     total cpu time spent up to now is       19.0 secs

     total energy              =    -156.40560817 Ry
     estimated scf accuracy    <       0.36602949 Ry

     iteration #  3     ecut=   100.00 Ry     beta= 0.70
     Davidson diagonalization with overlap
     ethr =  7.63E-04,  avg # of iterations =  2.0

     total cpu time spent up to now is       25.9 secs

     total energy              =    -156.46680206 Ry
     estimated scf accuracy    <       0.00475709 Ry

     iteration #  4     ecut=   100.00 Ry     beta= 0.70
     Davidson diagonalization with overlap
     ethr =  9.91E-06,  avg # of iterations =  5.1

     total cpu time spent up to now is       36.1 secs

     total energy              =    -156.46972300 Ry
     estimated scf accuracy    <       0.00176211 Ry

     iteration #  5     ecut=   100.00 Ry     beta= 0.70
     Davidson diagonalization with overlap
     ethr =  3.67E-06,  avg # of iterations =  3.0

     total cpu time spent up to now is       43.3 secs

     total energy              =    -156.47032776 Ry
     estimated scf accuracy    <       0.00017783 Ry

     iteration #  6     ecut=   100.00 Ry     beta= 0.70
     Davidson diagonalization with overlap
     ethr =  3.70E-07,  avg # of iterations =  4.1

     total cpu time spent up to now is       51.3 secs

     total energy              =    -156.47039233 Ry
     estimated scf accuracy    <       0.00000135 Ry

     iteration #  7     ecut=   100.00 Ry     beta= 0.70
     Davidson diagonalization with overlap
     ethr =  2.82E-09,  avg # of iterations =  9.0

     total cpu time spent up to now is       68.2 secs

     total energy              =    -156.47040289 Ry
     estimated scf accuracy    <       0.00000119 Ry

     iteration #  8     ecut=   100.00 Ry     beta= 0.70
     Davidson diagonalization with overlap
     ethr =  2.47E-09,  avg # of iterations =  2.0

     total cpu time spent up to now is       75.1 secs

     total energy              =    -156.47040313 Ry
     estimated scf accuracy    <       0.00000002 Ry

     iteration #  9     ecut=   100.00 Ry     beta= 0.70
     Davidson diagonalization with overlap
     ethr =  3.24E-11,  avg # of iterations =  6.0

     total cpu time spent up to now is       85.7 secs

     total energy              =    -156.47040315 Ry
     estimated scf accuracy    <          3.7E-09 Ry

     iteration # 10     ecut=   100.00 Ry     beta= 0.70
     Davidson diagonalization with overlap
     ethr =  7.69E-12,  avg # of iterations =  2.6

     total cpu time spent up to now is       93.5 secs

     total energy              =    -156.47040315 Ry
     estimated scf accuracy    <          3.7E-10 Ry

     iteration # 11     ecut=   100.00 Ry     beta= 0.70
     Davidson diagonalization with overlap
     ethr =  7.73E-13,  avg # of iterations =  4.3

     total cpu time spent up to now is      101.1 secs

     End of self-consistent calculation

          k = 0.0000 0.0000 0.0000 ( 25053 PWs)   bands (ev):

   -24.1667 -24.1591  -9.6543  -9.5778  -9.4061  -9.3726  -9.3406  -9.2845
    -6.0932  -5.1589  -4.5533  -4.3936  -1.8193  -0.9121  -0.8903  -0.5071
    -0.1430  -0.1388  -0.1069   0.0360   0.1906   0.5901   0.6138   0.6546

          k = 0.0000 0.0000 0.3611 ( 25046 PWs)   bands (ev):

   -24.1600 -24.1546  -9.5695  -9.5658  -9.5422  -9.5183  -9.3906  -9.3723
    -5.6258  -4.9263  -4.7034  -4.5987  -1.4600  -1.2063  -0.7468  -0.6858
    -0.5535  -0.4438  -0.0852   0.1946   0.4015   0.4255   0.4956   0.6461

          k = 0.0000 0.0000-0.7221 ( 25104 PWs)   bands (ev):

   -24.1516 -24.1516  -9.7626  -9.7624  -9.4411  -9.4411  -9.4008  -9.4008
    -4.9411  -4.9406  -4.8324  -4.8319  -1.2180  -1.2175  -1.2019  -1.2003
    -0.1506  -0.1500  -0.1102  -0.1083   0.4579   0.4581   0.4761   0.4767

          k = 0.0000 0.2438 0.0000 ( 25056 PWs)   bands (ev):

   -24.1656 -24.1602  -9.6278  -9.5508  -9.4519  -9.4034  -9.3322  -9.2926
    -5.9051  -5.0762  -4.8245  -4.5141  -1.4710  -1.0661  -0.9947  -0.2393
    -0.2372  -0.2027   0.0768   0.1897   0.2779   0.2786   0.5062   0.5855

          k = 0.0000 0.2438 0.3611 ( 25081 PWs)   bands (ev):

   -24.1592 -24.1554  -9.6075  -9.5704  -9.5030  -9.4938  -9.3979  -9.3914
    -5.5209  -4.9957  -4.7489  -4.6403  -1.2719  -1.2306  -1.0195  -0.4715
    -0.4261  -0.2309  -0.2226   0.2441   0.3297   0.3671   0.4726   0.5304

          k = 0.0000 0.2438-0.7221 ( 25092 PWs)   bands (ev):

   -24.1516 -24.1516  -9.7750  -9.7749  -9.4251  -9.4251  -9.4000  -9.4000
    -5.1828  -5.1828  -4.5821  -4.5821  -1.3273  -1.3266  -1.0386  -1.0379
    -0.0861  -0.0858  -0.0632  -0.0616   0.2951   0.2951   0.4709   0.4712

          k = 0.0000-0.4875 0.0000 ( 25038 PWs)   bands (ev):

   -24.1629 -24.1629  -9.5542  -9.5542  -9.4740  -9.4740  -9.3122  -9.3122
    -5.4289  -5.4289  -4.7828  -4.7828  -1.1831  -1.1831  -0.5402  -0.5402
    -0.3083  -0.3083   0.1926   0.1926   0.3115   0.3115   0.4433   0.4433

          k = 0.0000-0.4875 0.3611 ( 25068 PWs)   bands (ev):

   -24.1573 -24.1573  -9.6056  -9.6056  -9.4559  -9.4559  -9.4231  -9.4231
    -5.2577  -5.2577  -4.7198  -4.7198  -1.2121  -1.2121  -0.7980  -0.7980
    -0.1929  -0.1929   0.0859   0.0859   0.2449   0.2449   0.4515   0.4515

          k = 0.0000-0.4875-0.7221 ( 25068 PWs)   bands (ev):

   -24.1516 -24.1516  -9.7864  -9.7864  -9.4122  -9.4122  -9.3971  -9.3971
    -5.3004  -5.3004  -4.4562  -4.4562  -1.4132  -1.4132  -0.8107  -0.8107
    -0.1534  -0.1534   0.0144   0.0144   0.1084   0.1084   0.5074   0.5074

          k = 0.2500 0.0000 0.0000 ( 25049 PWs)   bands (ev):

   -24.1656 -24.1602  -9.6198  -9.5605  -9.4439  -9.4171  -9.3322  -9.2926
    -5.9131  -5.2025  -4.5855  -4.5386  -1.6329  -0.7955  -0.7876  -0.6359
    -0.1176  -0.0765  -0.0100   0.0576   0.1522   0.1774   0.5593   0.6009

          k = 0.2500 0.0000 0.3611 ( 25068 PWs)   bands (ev):

   -24.1592 -24.1553  -9.5988  -9.5811  -9.5292  -9.4719  -9.4126  -9.3802
    -5.4826  -4.9209  -4.7309  -4.7230  -1.4294  -1.1811  -1.0339  -0.5228
    -0.4909  -0.2404  -0.0073   0.1265   0.2530   0.3866   0.5754   0.5972

          k = 0.2500 0.0000-0.7221 ( 25040 PWs)   bands (ev):

   -24.1516 -24.1516  -9.7790  -9.7788  -9.4295  -9.4295  -9.3976  -9.3976
    -4.9891  -4.9887  -4.7563  -4.7559  -1.6726  -1.6721  -0.7807  -0.7802
    -0.1647  -0.1643   0.1403   0.1418   0.2711   0.2712   0.5122   0.5125

          k = 0.2500 0.2438 0.0000 ( 25028 PWs)   bands (ev):

   -24.1648 -24.1610  -9.6441  -9.5384  -9.4894  -9.3783  -9.3262  -9.2981
    -5.7741  -5.1643  -4.8097  -4.5804  -1.3519  -1.0296  -0.8027  -0.3504
    -0.2791  -0.2355   0.0631   0.1994   0.2241   0.2920   0.3742   0.5150

          k = 0.2500 0.2438 0.3611 ( 25070 PWs)   bands (ev):

   -24.1586 -24.1559  -9.6000  -9.5651  -9.5621  -9.4550  -9.4208  -9.3749
    -5.3943  -4.9481  -4.8303  -4.7177  -1.3892  -1.1437  -1.0587  -0.5126
    -0.3441  -0.1766  -0.0708   0.1409   0.2396   0.3515   0.4953   0.5770

          k = 0.2500 0.2438-0.7221 ( 25048 PWs)   bands (ev):

   -24.1516 -24.1516  -9.7854  -9.7644  -9.4475  -9.4134  -9.4041  -9.3981
    -5.1867  -5.0268  -4.7124  -4.5487  -1.6484  -1.5752  -0.8428  -0.7561
    -0.2085  -0.2083   0.1132   0.1676   0.2973   0.3290   0.4589   0.4971

          k = 0.2500-0.4875 0.0000 ( 25052 PWs)   bands (ev):

   -24.1629 -24.1629  -9.6210  -9.6210  -9.4085  -9.4085  -9.3119  -9.3119
    -5.4194  -5.4194  -4.7852  -4.7852  -1.0837  -1.0837  -0.5518  -0.5518
    -0.3432  -0.3432   0.1255   0.1255   0.3459   0.3459   0.3778   0.3778

          k = 0.2500-0.4875 0.3611 ( 25086 PWs)   bands (ev):

   -24.1572 -24.1572  -9.5960  -9.5960  -9.5082  -9.5082  -9.3869  -9.3869
    -5.1725  -5.1725  -4.7885  -4.7885  -1.2957  -1.2957  -0.7375  -0.7375
    -0.2046  -0.2046   0.1114   0.1114   0.2492   0.2492   0.4688   0.4688

          k = 0.2500-0.4875-0.7221 ( 25060 PWs)   bands (ev):

   -24.1516 -24.1516  -9.7718  -9.7718  -9.4321  -9.4321  -9.4031  -9.4031
    -5.2011  -5.2011  -4.5284  -4.5284  -1.5420  -1.5420  -0.8644  -0.8644
    -0.1000  -0.1000   0.0231   0.0231   0.3138   0.3138   0.4847   0.4847

          k =-0.5000 0.0000 0.0000 ( 24988 PWs)   bands (ev):

   -24.1629 -24.1629  -9.5361  -9.5361  -9.4994  -9.4994  -9.3122  -9.3122
    -5.5011  -5.5011  -4.6356  -4.6356  -1.2198  -1.2198  -0.4364  -0.4364
    -0.0808  -0.0808  -0.0532  -0.0532   0.0405   0.0405   0.4558   0.4558

          k =-0.5000 0.0000 0.3611 ( 25064 PWs)   bands (ev):

   -24.1572 -24.1572  -9.6083  -9.6083  -9.4751  -9.4751  -9.4108  -9.4108
    -5.1449  -5.1449  -4.7855  -4.7855  -1.3482  -1.3482  -0.7936  -0.7936
    -0.2057  -0.2057  -0.0185  -0.0185   0.3496   0.3496   0.5603   0.5603

          k =-0.5000 0.0000-0.7221 ( 25092 PWs)   bands (ev):

   -24.1516 -24.1516  -9.7941  -9.7941  -9.4205  -9.4205  -9.3929  -9.3929
    -5.0195  -5.0195  -4.6956  -4.6956  -1.8793  -1.8793  -0.5068  -0.5068
    -0.1740  -0.1740  -0.0022  -0.0022   0.4483   0.4483   0.4793   0.4793

          k =-0.5000 0.2438 0.0000 ( 25050 PWs)   bands (ev):

   -24.1628 -24.1628  -9.6197  -9.6197  -9.4134  -9.4134  -9.3119  -9.3119
    -5.4602  -5.4602  -4.7070  -4.7070  -1.1128  -1.1128  -0.4427  -0.4427
    -0.2781  -0.2781  -0.0910  -0.0910   0.2589   0.2589   0.4332   0.4332

          k =-0.5000 0.2438 0.3611 ( 25060 PWs)   bands (ev):

   -24.1572 -24.1572  -9.5978  -9.5978  -9.5123  -9.5123  -9.3857  -9.3857
    -5.0996  -5.0996  -4.8377  -4.8377  -1.3516  -1.3516  -0.7699  -0.7699
    -0.1703  -0.1703   0.0292   0.0292   0.3423   0.3423   0.4926   0.4926

          k =-0.5000 0.2438-0.7221 ( 25064 PWs)   bands (ev):

   -24.1516 -24.1516  -9.7760  -9.7760  -9.4346  -9.4346  -9.4024  -9.4024
    -5.0471  -5.0471  -4.6614  -4.6614  -1.7834  -1.7834  -0.7051  -0.7051
    -0.1296  -0.1296   0.0634   0.0634   0.3971   0.3971   0.5315   0.5315

          k =-0.5000-0.4875 0.0000 ( 25096 PWs)   bands (ev):

   -24.1628 -24.1628  -9.6601  -9.6601  -9.3705  -9.3705  -9.3116  -9.3116
    -5.4115  -5.4115  -4.7852  -4.7852  -0.9571  -0.9571  -0.5953  -0.5953
    -0.3749  -0.3749   0.1009   0.1009   0.2734   0.2734   0.3771   0.3771

          k =-0.5000-0.4875 0.3611 ( 25056 PWs)   bands (ev):

   -24.1572 -24.1572  -9.5779  -9.5779  -9.5489  -9.5489  -9.3707  -9.3707
    -5.0211  -5.0211  -4.9228  -4.9228  -1.3369  -1.3369  -0.8133  -0.8133
    -0.0224  -0.0224   0.1193   0.1193   0.2603   0.2603   0.3921   0.3921

          k =-0.5000-0.4875-0.7221 ( 25080 PWs)   bands (ev):

   -24.1516 -24.1516  -9.7555  -9.7555  -9.4544  -9.4544  -9.4084  -9.4084
    -5.0710  -5.0710  -4.6306  -4.6306  -1.6345  -1.6345  -0.9854  -0.9854
     0.0856   0.0856   0.1341   0.1341   0.2783   0.2783   0.4988   0.4988

     highest occupied level (ev):     0.6546

!    total energy              =    -156.47040315 Ry
     estimated scf accuracy    <          6.9E-11 Ry

     The total energy is the sum of the following terms:
     one-electron contribution =     -23.59542148 Ry
     hartree contribution      =      25.76335391 Ry
     xc contribution           =     -48.94628777 Ry
     ewald contribution        =    -109.69204782 Ry

     convergence has been achieved in  11 iterations

     Forces acting on atoms (cartesian axes, Ry/au):

     atom    1 type  2   force =     0.00000000    0.00000000    0.00001109
     atom    2 type  2   force =     0.00000000    0.00000000   -0.00001109
     atom    3 type  1   force =     0.00023566    0.00117792   -0.00001413
     atom    4 type  1   force =    -0.00023566   -0.00117792   -0.00001413
     atom    5 type  1   force =     0.00023566   -0.00117792    0.00001413
     atom    6 type  1   force =    -0.00023566    0.00117792    0.00001413
     atom    7 type  3   force =     0.01026022   -0.00260615   -0.00001951
     atom    8 type  3   force =    -0.01026022    0.00260615   -0.00001951
     atom    9 type  3   force =     0.01026022    0.00260615    0.00001951
     atom   10 type  3   force =    -0.01026022   -0.00260615    0.00001951
     atom   11 type  3   force =    -0.00678212   -0.00819944    0.00000730
     atom   12 type  3   force =     0.00678212    0.00819944    0.00000730
     atom   13 type  3   force =    -0.00678212    0.00819944   -0.00000730
     atom   14 type  3   force =     0.00678212   -0.00819944   -0.00000730
     atom   15 type  3   force =    -0.00125160    0.00602720    0.00915640
     atom   16 type  3   force =     0.00125160   -0.00602720    0.00915640
     atom   17 type  3   force =    -0.00125160   -0.00602720   -0.00915640
     atom   18 type  3   force =     0.00125160    0.00602720   -0.00915640
     atom   19 type  3   force =     0.00130609   -0.00604703   -0.00916307
     atom   20 type  3   force =    -0.00130609    0.00604703   -0.00916307
     atom   21 type  3   force =     0.00130609    0.00604703    0.00916307
     atom   22 type  3   force =    -0.00130609   -0.00604703    0.00916307

     Total force =     0.043391     Total SCF correction =     0.000005


     Computing stress (Cartesian axis) and pressure

          total   stress  (Ry/bohr**3)                   (kbar)     P=      -22.39
  -0.00014168   0.00000000   0.00000000          -20.84        0.00        0.00
   0.00000000  -0.00014454   0.00000000            0.00      -21.26        0.00
   0.00000000   0.00000000  -0.00017036            0.00        0.00      -25.06

     Volume is kept fixed: isostatic pressure set to zero

     BFGS Geometry Optimization
     Energy error            =      0.0E+00 Ry
     Gradient error          =      1.0E-02 Ry/Bohr
     Cell gradient error     =      2.7E+00 kbar

     number of scf cycles    =   1
     number of bfgs steps    =   0

     enthalpy           new  =    -156.4704031544 Ry

     new trust radius        =       0.0110559588 bohr
ibrav =      8
 celldm(1) =     12.78862489
 celldm(2) =      1.02549768
 celldm(3) =      0.69189794
Input lattice vectors:
     1.00026282     0.00000000     0.00000000
     0.00000000     1.02576720     0.00000000
     0.00000000     0.00000000     0.69207979
New lattice vectors in INITIAL alat:
     1.00026282     0.00000000     0.00000000
     0.00000000     1.02576720     0.00000000
     0.00000000     0.00000000     0.69207979
New lattice vectors in NEW alat (for information only):
     1.00000000     0.00000000     0.00000000
     0.00000000     1.02549768     0.00000000
     0.00000000     0.00000000     0.69189794
Discrepancy in bohr =     0.000000    0.000000    0.000000
     new conv_thr            =            1.0E-10 Ry

     new unit-cell volume =   1484.04910 a.u.^3 (   219.91339 Ang^3 )
     density =      2.52218 g/cm^3

CELL_PARAMETERS (alat= 12.78526473)
   1.000262815   0.000000000   0.000000000
   0.000000000   1.025767196   0.000000000
   0.000000000   0.000000000   0.692079786

ATOMIC_POSITIONS (crystal)
Ba               0.5000000000        0.5000000000        0.5001004185
Ba               0.0000000000        0.0000000000        0.9998995815
B                0.6102754485        0.2392922143        0.0000640605
B                0.3897245515        0.7607077857        0.0000640605
B                0.1102754485        0.2607077857        0.4999359395
B                0.8897245515        0.7392922143        0.4999359395
H                0.4348997558        0.2919569712        0.0002287289
H                0.5651002442        0.7080430288        0.0002287289
H                0.9348997558        0.2080430288        0.4997712711
H                0.0651002442        0.7919569712        0.4997712711
H                0.7215298039        0.3829296800       -0.0000075472
H                0.2784701961        0.6170703200       -0.0000075472
H                0.2215298039        0.1170703200        0.5000075472
H                0.7784701961        0.8829296800        0.5000075472
H                0.6391520302        0.1425540586        0.7815327500
H                0.3608479698        0.8574459414        0.7815327500
H                0.1391520302        0.3574459414        0.7184672500
H                0.8608479698        0.6425540586        0.7184672500
H                0.3606349864        0.8574947386        0.2184897593
H                0.6393650136        0.1425052614        0.2184897593
H                0.8606349864        0.6425052614        0.2815102407
H                0.1393650136        0.3574947386        0.2815102407



     Writing config-only to output data dir ./pwscf.save/ :
     XML data file
     NEW-OLD atomic charge density approx. for the potential

     total cpu time spent up to now is      109.5 secs

     Self-consistent Calculation

     iteration #  1     ecut=   100.00 Ry     beta= 0.70
     Davidson diagonalization with overlap
     ethr =  1.00E-06,  avg # of iterations =  4.0

     total cpu time spent up to now is      118.8 secs

     total energy              =    -156.47181543 Ry
     estimated scf accuracy    <       0.00044275 Ry

     iteration #  2     ecut=   100.00 Ry     beta= 0.70
     Davidson diagonalization with overlap
     ethr =  9.22E-07,  avg # of iterations =  2.0

     total cpu time spent up to now is      125.7 secs

     total energy              =    -156.47193999 Ry
     estimated scf accuracy    <       0.00009240 Ry

     iteration #  3     ecut=   100.00 Ry     beta= 0.70
     Davidson diagonalization with overlap
     ethr =  1.92E-07,  avg # of iterations =  2.0

     total cpu time spent up to now is      132.6 secs

     total energy              =    -156.47195281 Ry
     estimated scf accuracy    <       0.00000105 Ry

     iteration #  4     ecut=   100.00 Ry     beta= 0.70
     Davidson diagonalization with overlap
     ethr =  2.19E-09,  avg # of iterations =  3.1

     total cpu time spent up to now is      141.1 secs

     total energy              =    -156.47195338 Ry
     estimated scf accuracy    <       0.00000079 Ry

     iteration #  5     ecut=   100.00 Ry     beta= 0.70
     Davidson diagonalization with overlap
     ethr =  1.64E-09,  avg # of iterations =  2.0

     total cpu time spent up to now is      148.0 secs

     total energy              =    -156.47195346 Ry
     estimated scf accuracy    <       0.00000003 Ry

     iteration #  6     ecut=   100.00 Ry     beta= 0.70
     Davidson diagonalization with overlap
     ethr =  6.95E-11,  avg # of iterations =  3.7

     total cpu time spent up to now is      156.2 secs

     total energy              =    -156.47195348 Ry
     estimated scf accuracy    <          9.6E-09 Ry

     iteration #  7     ecut=   100.00 Ry     beta= 0.70
     Davidson diagonalization with overlap
     ethr =  1.99E-11,  avg # of iterations =  3.9

     total cpu time spent up to now is      164.1 secs

     End of self-consistent calculation

          k = 0.0000 0.0000 0.0000 ( 25053 PWs)   bands (ev):

   -24.1766 -24.1691  -9.6644  -9.5874  -9.4156  -9.3818  -9.3495  -9.2936
    -6.1127  -5.1904  -4.5834  -4.4256  -1.8187  -0.9243  -0.8960  -0.5259
    -0.1587  -0.1458  -0.1179   0.0206   0.1770   0.5683   0.5918   0.6311

          k = 0.0000 0.0000 0.3612 ( 25046 PWs)   bands (ev):

   -24.1699 -24.1645  -9.5792  -9.5757  -9.5523  -9.5276  -9.4000  -9.3815
    -5.6464  -4.9566  -4.7347  -4.6316  -1.4581  -1.2086  -0.7492  -0.6987
    -0.5650  -0.4559  -0.1009   0.1756   0.3813   0.4043   0.4768   0.6240

          k = 0.0000 0.0000-0.7225 ( 25104 PWs)   bands (ev):

   -24.1615 -24.1615  -9.7733  -9.7732  -9.4502  -9.4501  -9.4101  -9.4100
    -4.9670  -4.9665  -4.8654  -4.8649  -1.2184  -1.2180  -1.2016  -1.2001
    -0.1676  -0.1670  -0.1258  -0.1239   0.4376   0.4378   0.4548   0.4553

          k = 0.0000 0.2437 0.0000 ( 25056 PWs)   bands (ev):

   -24.1755 -24.1702  -9.6378  -9.5605  -9.4613  -9.4127  -9.3411  -9.3016
    -5.9255  -5.1077  -4.8513  -4.5459  -1.4742  -1.0717  -1.0039  -0.2533
    -0.2492  -0.2222   0.0643   0.1748   0.2586   0.2636   0.4847   0.5640

          k = 0.0000 0.2437 0.3612 ( 25081 PWs)   bands (ev):

   -24.1691 -24.1653  -9.6173  -9.5804  -9.5129  -9.5032  -9.4073  -9.4005
    -5.5427  -5.0252  -4.7790  -4.6724  -1.2721  -1.2325  -1.0241  -0.4813
    -0.4384  -0.2482  -0.2358   0.2253   0.3102   0.3466   0.4529   0.5098

          k = 0.0000 0.2437-0.7225 ( 25092 PWs)   bands (ev):

   -24.1615 -24.1615  -9.7857  -9.7856  -9.4341  -9.4341  -9.4093  -9.4093
    -5.2119  -5.2119  -4.6116  -4.6116  -1.3273  -1.3267  -1.0397  -1.0390
    -0.1029  -0.1027  -0.0798  -0.0782   0.2762   0.2762   0.4495   0.4498

          k = 0.0000-0.4874 0.0000 ( 25038 PWs)   bands (ev):

   -24.1728 -24.1728  -9.5643  -9.5643  -9.4831  -9.4831  -9.3212  -9.3212
    -5.4519  -5.4519  -4.8140  -4.8140  -1.1879  -1.1879  -0.5526  -0.5526
    -0.3209  -0.3209   0.1713   0.1713   0.2961   0.2961   0.4247   0.4247

          k = 0.0000-0.4874 0.3612 ( 25068 PWs)   bands (ev):

   -24.1672 -24.1672  -9.6155  -9.6155  -9.4658  -9.4658  -9.4321  -9.4321
    -5.2831  -5.2831  -4.7505  -4.7505  -1.2136  -1.2136  -0.8052  -0.8052
    -0.2082  -0.2082   0.0702   0.0702   0.2242   0.2242   0.4316   0.4316

          k = 0.0000-0.4874-0.7225 ( 25068 PWs)   bands (ev):

   -24.1615 -24.1615  -9.7970  -9.7970  -9.4212  -9.4212  -9.4064  -9.4064
    -5.3297  -5.3297  -4.4853  -4.4853  -1.4131  -1.4131  -0.8122  -0.8122
    -0.1714  -0.1714  -0.0008  -0.0008   0.0892   0.0892   0.4857   0.4857

          k = 0.2499 0.0000 0.0000 ( 25049 PWs)   bands (ev):

   -24.1755 -24.1701  -9.6299  -9.5701  -9.4534  -9.4263  -9.3411  -9.3016
    -5.9337  -5.2320  -4.6160  -4.5697  -1.6334  -0.8030  -0.7968  -0.6502
    -0.1291  -0.0921  -0.0234   0.0416   0.1371   0.1593   0.5373   0.5775

          k = 0.2499 0.0000 0.3612 ( 25068 PWs)   bands (ev):

   -24.1691 -24.1653  -9.6086  -9.5911  -9.5389  -9.4815  -9.4218  -9.3894
    -5.5043  -4.9502  -4.7623  -4.7548  -1.4269  -1.1861  -1.0348  -0.5345
    -0.5049  -0.2541  -0.0251   0.1088   0.2343   0.3675   0.5533   0.5767

          k = 0.2499 0.0000-0.7225 ( 25040 PWs)   bands (ev):

   -24.1615 -24.1615  -9.7897  -9.7896  -9.4385  -9.4385  -9.4069  -9.4068
    -5.0196  -5.0192  -4.7849  -4.7846  -1.6699  -1.6695  -0.7845  -0.7841
    -0.1814  -0.1810   0.1233   0.1248   0.2522   0.2523   0.4908   0.4912

          k = 0.2499 0.2437 0.0000 ( 25028 PWs)   bands (ev):

   -24.1747 -24.1709  -9.6539  -9.5483  -9.4985  -9.3876  -9.3351  -9.3072
    -5.7958  -5.1934  -4.8380  -4.6106  -1.3562  -1.0367  -0.8128  -0.3632
    -0.2914  -0.2482   0.0450   0.1843   0.2053   0.2761   0.3533   0.4946

          k = 0.2499 0.2437 0.3612 ( 25070 PWs)   bands (ev):

   -24.1685 -24.1658  -9.6100  -9.5750  -9.5716  -9.4649  -9.4298  -9.3842
    -5.4171  -4.9780  -4.8592  -4.7492  -1.3883  -1.1448  -1.0646  -0.5247
    -0.3575  -0.1911  -0.0878   0.1240   0.2203   0.3316   0.4748   0.5567

          k = 0.2499 0.2437-0.7225 ( 25048 PWs)   bands (ev):

   -24.1615 -24.1615  -9.7962  -9.7751  -9.4565  -9.4224  -9.4133  -9.4075
    -5.2168  -5.0565  -4.7418  -4.5776  -1.6459  -1.5725  -0.8476  -0.7599
    -0.2247  -0.2246   0.0970   0.1502   0.2776   0.3091   0.4389   0.4748

          k = 0.2499-0.4874 0.0000 ( 25052 PWs)   bands (ev):

   -24.1728 -24.1728  -9.6307  -9.6307  -9.4179  -9.4179  -9.3209  -9.3209
    -5.4441  -5.4441  -4.8143  -4.8143  -1.0910  -1.0910  -0.5640  -0.5640
    -0.3552  -0.3552   0.1083   0.1083   0.3298   0.3298   0.3576   0.3576

          k = 0.2499-0.4874 0.3612 ( 25086 PWs)   bands (ev):

   -24.1672 -24.1672  -9.6058  -9.6058  -9.5178  -9.5178  -9.3962  -9.3962
    -5.1986  -5.1986  -4.8185  -4.8185  -1.2963  -1.2963  -0.7471  -0.7471
    -0.2188  -0.2188   0.0941   0.0941   0.2301   0.2301   0.4487   0.4487

          k = 0.2499-0.4874-0.7225 ( 25060 PWs)   bands (ev):

   -24.1615 -24.1615  -9.7825  -9.7825  -9.4411  -9.4411  -9.4124  -9.4124
    -5.2308  -5.2308  -4.5575  -4.5575  -1.5395  -1.5395  -0.8691  -0.8691
    -0.1172  -0.1172   0.0076   0.0076   0.2938   0.2938   0.4636   0.4636

          k =-0.4999 0.0000 0.0000 ( 24988 PWs)   bands (ev):

   -24.1728 -24.1728  -9.5463  -9.5463  -9.5084  -9.5084  -9.3212  -9.3212
    -5.5250  -5.5250  -4.6668  -4.6668  -1.2229  -1.2229  -0.4483  -0.4483
    -0.0919  -0.0919  -0.0719  -0.0719   0.0240   0.0240   0.4338   0.4338

          k =-0.4999 0.0000 0.3612 ( 25064 PWs)   bands (ev):

   -24.1671 -24.1671  -9.6182  -9.6182  -9.4848  -9.4848  -9.4200  -9.4200
    -5.1698  -5.1698  -4.8174  -4.8174  -1.3472  -1.3472  -0.8021  -0.8021
    -0.2216  -0.2216  -0.0354  -0.0354   0.3310   0.3310   0.5389   0.5389

          k =-0.4999 0.0000-0.7225 ( 25092 PWs)   bands (ev):

   -24.1615 -24.1615  -9.8048  -9.8048  -9.4295  -9.4295  -9.4022  -9.4022
    -5.0516  -5.0516  -4.7230  -4.7230  -1.8754  -1.8754  -0.5121  -0.5121
    -0.1906  -0.1906  -0.0196  -0.0196   0.4298   0.4298   0.4573   0.4573

          k =-0.4999 0.2437 0.0000 ( 25050 PWs)   bands (ev):

   -24.1728 -24.1728  -9.6295  -9.6295  -9.4228  -9.4228  -9.3209  -9.3209
    -5.4853  -5.4853  -4.7363  -4.7363  -1.1193  -1.1193  -0.4544  -0.4544
    -0.2900  -0.2900  -0.1077  -0.1077   0.2428   0.2428   0.4118   0.4118

          k =-0.4999 0.2437 0.3612 ( 25060 PWs)   bands (ev):

   -24.1671 -24.1671  -9.6076  -9.6076  -9.5220  -9.5220  -9.3950  -9.3950
    -5.1253  -5.1253  -4.8684  -4.8684  -1.3512  -1.3512  -0.7793  -0.7793
    -0.1859  -0.1859   0.0122   0.0122   0.3232   0.3232   0.4724   0.4724

          k =-0.4999 0.2437-0.7225 ( 25064 PWs)   bands (ev):

   -24.1615 -24.1615  -9.7868  -9.7868  -9.4435  -9.4435  -9.4116  -9.4116
    -5.0782  -5.0782  -4.6897  -4.6897  -1.7796  -1.7796  -0.7108  -0.7108
    -0.1455  -0.1455   0.0454   0.0454   0.3776   0.3776   0.5105   0.5105

          k =-0.4999-0.4874 0.0000 ( 25096 PWs)   bands (ev):

   -24.1728 -24.1728  -9.6698  -9.6698  -9.3799  -9.3799  -9.3206  -9.3206
    -5.4380  -5.4380  -4.8122  -4.8122  -0.9694  -0.9694  -0.6035  -0.6035
    -0.3865  -0.3865   0.0835   0.0835   0.2547   0.2547   0.3604   0.3604

          k =-0.4999-0.4874 0.3612 ( 25056 PWs)   bands (ev):

   -24.1671 -24.1671  -9.5873  -9.5873  -9.5590  -9.5590  -9.3799  -9.3799
    -5.0483  -5.0483  -4.9516  -4.9516  -1.3369  -1.3369  -0.8232  -0.8232
    -0.0375  -0.0375   0.0997   0.0997   0.2417   0.2417   0.3744   0.3744

          k =-0.4999-0.4874-0.7225 ( 25080 PWs)   bands (ev):

   -24.1615 -24.1615  -9.7663  -9.7663  -9.4634  -9.4634  -9.4176  -9.4176
    -5.1015  -5.1015  -4.6597  -4.6597  -1.6305  -1.6305  -0.9907  -0.9907
     0.0677   0.0677   0.1144   0.1144   0.2604   0.2604   0.4790   0.4790

     highest occupied level (ev):     0.6311

!    total energy              =    -156.47195348 Ry
     estimated scf accuracy    <          4.1E-11 Ry

     The total energy is the sum of the following terms:
     one-electron contribution =     -23.91687023 Ry
     hartree contribution      =      25.92371282 Ry
     xc contribution           =     -48.98630413 Ry
     ewald contribution        =    -109.49249194 Ry

     convergence has been achieved in   7 iterations

     Forces acting on atoms (cartesian axes, Ry/au):

     atom    1 type  2   force =     0.00000000    0.00000000    0.00000916
     atom    2 type  2   force =     0.00000000    0.00000000   -0.00000916
     atom    3 type  1   force =     0.00031255    0.00130106   -0.00001087
     atom    4 type  1   force =    -0.00031255   -0.00130106   -0.00001087
     atom    5 type  1   force =     0.00031255   -0.00130106    0.00001087
     atom    6 type  1   force =    -0.00031255    0.00130106    0.00001087
     atom    7 type  3   force =     0.00660826   -0.00151907   -0.00001781
     atom    8 type  3   force =    -0.00660826    0.00151907   -0.00001781
     atom    9 type  3   force =     0.00660826    0.00151907    0.00001781
     atom   10 type  3   force =    -0.00660826   -0.00151907    0.00001781
     atom   11 type  3   force =    -0.00437404   -0.00497361    0.00000543
     atom   12 type  3   force =     0.00437404    0.00497361    0.00000543
     atom   13 type  3   force =    -0.00437404    0.00497361   -0.00000543
     atom   14 type  3   force =     0.00437404   -0.00497361   -0.00000543
     atom   15 type  3   force =    -0.00062210    0.00385101    0.00563568
     atom   16 type  3   force =     0.00062210   -0.00385101    0.00563568
     atom   17 type  3   force =    -0.00062210   -0.00385101   -0.00563568
     atom   18 type  3   force =     0.00062210    0.00385101   -0.00563568
     atom   19 type  3   force =     0.00066961   -0.00386839   -0.00564415
     atom   20 type  3   force =    -0.00066961    0.00386839   -0.00564415
     atom   21 type  3   force =     0.00066961    0.00386839    0.00564415
     atom   22 type  3   force =    -0.00066961   -0.00386839    0.00564415

     Total force =     0.027268     Total SCF correction =     0.000003


     Computing stress (Cartesian axis) and pressure

          total   stress  (Ry/bohr**3)                   (kbar)     P=      -17.62
  -0.00011181   0.00000000   0.00000000          -16.45        0.00        0.00
   0.00000000  -0.00011344   0.00000000            0.00      -16.69        0.00
   0.00000000   0.00000000  -0.00013417            0.00        0.00      -19.74

     Volume is kept fixed: isostatic pressure set to zero
     Energy error            =      1.6E-03 Ry
     Gradient error          =      6.6E-03 Ry/Bohr
     Cell gradient error     =      2.1E+00 kbar

     number of scf cycles    =   2
     number of bfgs steps    =   1

     enthalpy           old  =    -156.4704031544 Ry
     enthalpy           new  =    -156.4719534808 Ry

     CASE: enthalpy          _new < enthalpy          _old

     new trust radius        =       0.0165797771 bohr
ibrav =      8
 celldm(1) =     12.79478981
 celldm(2) =      1.02539733
 celldm(3) =      0.69096591
Input lattice vectors:
     1.00074500     0.00000000     0.00000000
     0.00000000     1.02616126     0.00000000
     0.00000000     0.00000000     0.69148068
New lattice vectors in INITIAL alat:
     1.00074500     0.00000000     0.00000000
     0.00000000     1.02616126     0.00000000
     0.00000000     0.00000000     0.69148068
New lattice vectors in NEW alat (for information only):
     1.00000000     0.00000000     0.00000000
     0.00000000     1.02539733     0.00000000
     0.00000000     0.00000000     0.69096591
Discrepancy in bohr =     0.000000    0.000000    0.000000
     new conv_thr            =            1.0E-10 Ry

     new unit-cell volume =   1484.04910 a.u.^3 (   219.91339 Ang^3 )
     density =      2.52218 g/cm^3

CELL_PARAMETERS (alat= 12.78526473)
   1.000745004   0.000000000   0.000000000
   0.000000000   1.026161260   0.000000000
   0.000000000   0.000000000   0.691480679

ATOMIC_POSITIONS (crystal)
Ba               0.5000000000        0.5000000000        0.5001029112
Ba               0.0000000000        0.0000000000        0.9998970888
B                0.6103342639        0.2395310567        0.0000611024
B                0.3896657361        0.7604689433        0.0000611024
B                0.1103342639        0.2604689433        0.4999388976
B                0.8896657361        0.7395310567        0.4999388976
H                0.4361468672        0.2916772975        0.0002238861
H                0.5638531328        0.7083227025        0.0002238861
H                0.9361468672        0.2083227025        0.4997761139
H                0.0638531328        0.7916772975        0.4997761139
H                0.7207043408        0.3820142139       -0.0000060707
H                0.2792956592        0.6179857861       -0.0000060707
H                0.2207043408        0.1179857861        0.5000060707
H                0.7792956592        0.8820142139        0.5000060707
H                0.6390344338        0.1432626828        0.7830681222
H                0.3609655662        0.8567373172        0.7830681222
H                0.1390344338        0.3567373172        0.7169318778
H                0.8609655662        0.6432626828        0.7169318778
H                0.3607615358        0.8567829215        0.2169520872
H                0.6392384642        0.1432170785        0.2169520872
H                0.8607615358        0.6432170785        0.2830479128
H                0.1392384642        0.3567829215        0.2830479128



     Writing config-only to output data dir ./pwscf.save/ :
     XML data file
     NEW-OLD atomic charge density approx. for the potential

     total cpu time spent up to now is      172.5 secs

     Self-consistent Calculation

     iteration #  1     ecut=   100.00 Ry     beta= 0.70
     Davidson diagonalization with overlap
     ethr =  1.00E-06,  avg # of iterations =  4.0

     total cpu time spent up to now is      182.9 secs

     total energy              =    -156.47259510 Ry
     estimated scf accuracy    <       0.00108445 Ry

     iteration #  2     ecut=   100.00 Ry     beta= 0.70
     Davidson diagonalization with overlap
     ethr =  2.26E-06,  avg # of iterations =  2.0

     total cpu time spent up to now is      189.8 secs

     total energy              =    -156.47291495 Ry
     estimated scf accuracy    <       0.00024522 Ry

     iteration #  3     ecut=   100.00 Ry     beta= 0.70
     Davidson diagonalization with overlap
     ethr =  5.11E-07,  avg # of iterations =  2.0

     total cpu time spent up to now is      196.7 secs

     total energy              =    -156.47294671 Ry
     estimated scf accuracy    <       0.00000379 Ry

     iteration #  4     ecut=   100.00 Ry     beta= 0.70
     Davidson diagonalization with overlap
     ethr =  7.91E-09,  avg # of iterations =  3.0

     total cpu time spent up to now is      205.0 secs

     total energy              =    -156.47294861 Ry
     estimated scf accuracy    <       0.00000260 Ry

     iteration #  5     ecut=   100.00 Ry     beta= 0.70
     Davidson diagonalization with overlap
     ethr =  5.42E-09,  avg # of iterations =  2.0

     total cpu time spent up to now is      211.8 secs

     total energy              =    -156.47294884 Ry
     estimated scf accuracy    <       0.00000013 Ry

     iteration #  6     ecut=   100.00 Ry     beta= 0.70
     Davidson diagonalization with overlap
     ethr =  2.74E-10,  avg # of iterations =  3.2

     total cpu time spent up to now is      219.5 secs

     total energy              =    -156.47294890 Ry
     estimated scf accuracy    <       0.00000004 Ry

     iteration #  7     ecut=   100.00 Ry     beta= 0.70
     Davidson diagonalization with overlap
     ethr =  7.57E-11,  avg # of iterations =  2.1

     total cpu time spent up to now is      226.4 secs

     total energy              =    -156.47294891 Ry
     estimated scf accuracy    <          1.1E-09 Ry

     iteration #  8     ecut=   100.00 Ry     beta= 0.70
     Davidson diagonalization with overlap
     ethr =  2.28E-12,  avg # of iterations =  6.2

     total cpu time spent up to now is      238.3 secs

     End of self-consistent calculation

          k = 0.0000 0.0000 0.0000 ( 25053 PWs)   bands (ev):

   -24.1913 -24.1837  -9.6797  -9.6017  -9.4297  -9.3955  -9.3627  -9.3072
    -6.1429  -5.2385  -4.6292  -4.4746  -1.8197  -0.9442  -0.9059  -0.5554
    -0.1801  -0.1601  -0.1313  -0.0003   0.1600   0.5349   0.5560   0.5929

          k = 0.0000 0.0000 0.3615 ( 25046 PWs)   bands (ev):

   -24.1845 -24.1791  -9.5936  -9.5910  -9.5679  -9.5414  -9.4137  -9.3951
    -5.6775  -5.0022  -4.7828  -4.6821  -1.4562  -1.2129  -0.7545  -0.7195
    -0.5813  -0.4724  -0.1242   0.1476   0.3485   0.3717   0.4484   0.5892

          k = 0.0000 0.0000-0.7231 ( 25104 PWs)   bands (ev):

   -24.1761 -24.1761  -9.7902  -9.7901  -9.4634  -9.4633  -9.4237  -9.4237
    -5.0054  -5.0049  -4.9163  -4.9158  -1.2180  -1.2175  -1.2024  -1.2009
    -0.1952  -0.1946  -0.1493  -0.1474   0.4064   0.4065   0.4223   0.4227

          k = 0.0000 0.2436 0.0000 ( 25056 PWs)   bands (ev):

   -24.1901 -24.1848  -9.6530  -9.5749  -9.4752  -9.4264  -9.3544  -9.3152
    -5.9569  -5.1561  -4.8919  -4.5946  -1.4807  -1.0815  -1.0197  -0.2718
    -0.2644  -0.2529   0.0418   0.1551   0.2268   0.2441   0.4517   0.5287

          k = 0.0000 0.2436 0.3615 ( 25081 PWs)   bands (ev):

   -24.1837 -24.1799  -9.6321  -9.5956  -9.5277  -9.5171  -9.4212  -9.4140
    -5.5758  -5.0697  -4.8250  -4.7217  -1.2731  -1.2362  -1.0327  -0.4945
    -0.4565  -0.2747  -0.2554   0.1970   0.2793   0.3148   0.4229   0.4771

          k = 0.0000 0.2436-0.7231 ( 25092 PWs)   bands (ev):

   -24.1761 -24.1760  -9.8024  -9.8023  -9.4473  -9.4473  -9.4230  -9.4230
    -5.2560  -5.2560  -4.6566  -4.6566  -1.3284  -1.3277  -1.0405  -1.0397
    -0.1300  -0.1300  -0.1048  -0.1031   0.2476   0.2476   0.4160   0.4162

          k = 0.0000-0.4873 0.0000 ( 25038 PWs)   bands (ev):

   -24.1875 -24.1875  -9.5795  -9.5795  -9.4966  -9.4966  -9.3346  -9.3346
    -5.4876  -5.4876  -4.8615  -4.8615  -1.1966  -1.1966  -0.5737  -0.5737
    -0.3370  -0.3370   0.1380   0.1380   0.2756   0.2756   0.3938   0.3938

          k = 0.0000-0.4873 0.3615 ( 25068 PWs)   bands (ev):

   -24.1818 -24.1818  -9.6304  -9.6304  -9.4807  -9.4807  -9.4454  -9.4454
    -5.3214  -5.3214  -4.7975  -4.7975  -1.2170  -1.2170  -0.8165  -0.8165
    -0.2305  -0.2305   0.0473   0.0473   0.1910   0.1910   0.4006   0.4006

          k = 0.0000-0.4873-0.7231 ( 25068 PWs)   bands (ev):

   -24.1760 -24.1760  -9.8136  -9.8136  -9.4343  -9.4343  -9.4202  -9.4202
    -5.3742  -5.3742  -4.5295  -4.5295  -1.4140  -1.4140  -0.8130  -0.8130
    -0.1996  -0.1996  -0.0247  -0.0247   0.0603   0.0603   0.4513   0.4513

          k = 0.2498 0.0000 0.0000 ( 25049 PWs)   bands (ev):

   -24.1901 -24.1848  -9.6450  -9.5843  -9.4676  -9.4400  -9.3544  -9.3152
    -5.9655  -5.2772  -4.6625  -4.6170  -1.6361  -0.8153  -0.8128  -0.6732
    -0.1437  -0.1126  -0.0411   0.0152   0.1175   0.1308   0.5020   0.5393

          k = 0.2498 0.0000 0.3615 ( 25068 PWs)   bands (ev):

   -24.1837 -24.1799  -9.6235  -9.6062  -9.5535  -9.4958  -9.4354  -9.4031
    -5.5373  -4.9945  -4.8104  -4.8035  -1.4238  -1.1941  -1.0368  -0.5518
    -0.5274  -0.2734  -0.0517   0.0811   0.2071   0.3384   0.5183   0.5448

          k = 0.2498 0.0000-0.7231 ( 25040 PWs)   bands (ev):

   -24.1760 -24.1760  -9.8065  -9.8064  -9.4517  -9.4517  -9.4206  -9.4205
    -5.0663  -5.0660  -4.8280  -4.8277  -1.6660  -1.6655  -0.7900  -0.7896
    -0.2083  -0.2080   0.0974   0.0988   0.2234   0.2235   0.4579   0.4582

          k = 0.2498 0.2436 0.0000 ( 25028 PWs)   bands (ev):

   -24.1893 -24.1856  -9.6687  -9.5633  -9.5121  -9.4015  -9.3484  -9.3207
    -5.8293  -5.2385  -4.8809  -4.6567  -1.3646  -1.0487  -0.8301  -0.3844
    -0.3071  -0.2644   0.0159   0.1643   0.1749   0.2552   0.3195   0.4618

          k = 0.2498 0.2436 0.3615 ( 25070 PWs)   bands (ev):

   -24.1831 -24.1804  -9.6250  -9.5901  -9.5857  -9.4798  -9.4432  -9.3978
    -5.4519  -5.0231  -4.9035  -4.7974  -1.3876  -1.1472  -1.0743  -0.5426
    -0.3784  -0.2121  -0.1131   0.0980   0.1905   0.3010   0.4434   0.5247

          k = 0.2498 0.2436-0.7231 ( 25048 PWs)   bands (ev):

   -24.1760 -24.1760  -9.8130  -9.7919  -9.4697  -9.4356  -9.4269  -9.4213
    -5.2626  -5.1017  -4.7864  -4.6214  -1.6424  -1.5687  -0.8542  -0.7649
    -0.2509  -0.2508   0.0734   0.1241   0.2451   0.2791   0.4093   0.4390

          k = 0.2498-0.4873 0.0000 ( 25052 PWs)   bands (ev):

   -24.1874 -24.1874  -9.6453  -9.6453  -9.4318  -9.4318  -9.3343  -9.3343
    -5.4826  -5.4826  -4.8583  -4.8583  -1.1033  -1.1033  -0.5849  -0.5849
    -0.3705  -0.3705   0.0804   0.0804   0.3084   0.3084   0.3252   0.3252

          k = 0.2498-0.4873 0.3615 ( 25086 PWs)   bands (ev):

   -24.1817 -24.1817  -9.6205  -9.6205  -9.5325  -9.5325  -9.4099  -9.4099
    -5.2382  -5.2382  -4.8643  -4.8643  -1.2978  -1.2978  -0.7618  -0.7618
    -0.2396  -0.2396   0.0679   0.0679   0.1998   0.1998   0.4181   0.4181

          k = 0.2498-0.4873-0.7231 ( 25060 PWs)   bands (ev):

   -24.1760 -24.1760  -9.7993  -9.7993  -9.4543  -9.4543  -9.4261  -9.4261
    -5.2761  -5.2761  -4.6018  -4.6018  -1.5365  -1.5365  -0.8754  -0.8754
    -0.1438  -0.1438  -0.0169  -0.0169   0.2634   0.2634   0.4303   0.4303

          k =-0.4996 0.0000 0.0000 ( 24988 PWs)   bands (ev):

   -24.1874 -24.1874  -9.5617  -9.5617  -9.5217  -9.5217  -9.3346  -9.3346
    -5.5622  -5.5622  -4.7142  -4.7142  -1.2298  -1.2298  -0.4668  -0.4668
    -0.1057  -0.1057  -0.1019  -0.1019   0.0017   0.0017   0.3975   0.3975

          k =-0.4996 0.0000 0.3615 ( 25064 PWs)   bands (ev):

   -24.1817 -24.1817  -9.6332  -9.6332  -9.4993  -9.4993  -9.4336  -9.4336
    -5.2076  -5.2076  -4.8659  -4.8659  -1.3459  -1.3459  -0.8154  -0.8154
    -0.2461  -0.2461  -0.0608  -0.0608   0.3038   0.3038   0.5046   0.5046

          k =-0.4996 0.0000-0.7231 ( 25092 PWs)   bands (ev):

   -24.1760 -24.1760  -9.8215  -9.8215  -9.4426  -9.4426  -9.4159  -9.4159
    -5.1010  -5.1010  -4.7640  -4.7640  -1.8696  -1.8696  -0.5196  -0.5196
    -0.2175  -0.2175  -0.0459  -0.0459   0.4022   0.4022   0.4221   0.4221

          k =-0.4996 0.2436 0.0000 ( 25050 PWs)   bands (ev):

   -24.1874 -24.1874  -9.6440  -9.6440  -9.4367  -9.4367  -9.3343  -9.3343
    -5.5241  -5.5241  -4.7805  -4.7805  -1.1310  -1.1310  -0.4735  -0.4735
    -0.3051  -0.3051  -0.1347  -0.1347   0.2216   0.2216   0.3771   0.3771

          k =-0.4996 0.2436 0.3615 ( 25060 PWs)   bands (ev):

   -24.1817 -24.1817  -9.6223  -9.6223  -9.5366  -9.5366  -9.4087  -9.4087
    -5.1645  -5.1645  -4.9151  -4.9151  -1.3511  -1.3511  -0.7935  -0.7935
    -0.2105  -0.2105  -0.0127  -0.0127   0.2946   0.2946   0.4406   0.4406

          k =-0.4996 0.2436-0.7231 ( 25064 PWs)   bands (ev):

   -24.1760 -24.1760  -9.8035  -9.8035  -9.4566  -9.4566  -9.4253  -9.4253
    -5.1260  -5.1260  -4.7324  -4.7324  -1.7740  -1.7740  -0.7190  -0.7190
    -0.1714  -0.1714   0.0187   0.0187   0.3467   0.3467   0.4783   0.4783

          k =-0.4996-0.4873 0.0000 ( 25096 PWs)   bands (ev):

   -24.1874 -24.1874  -9.6843  -9.6843  -9.3938  -9.3938  -9.3340  -9.3340
    -5.4792  -5.4792  -4.8528  -4.8528  -0.9889  -0.9889  -0.6185  -0.6185
    -0.4010  -0.4010   0.0540   0.0540   0.2256   0.2256   0.3383   0.3383

          k =-0.4996-0.4873 0.3615 ( 25056 PWs)   bands (ev):

   -24.1817 -24.1817  -9.6012  -9.6012  -9.5744  -9.5744  -9.3936  -9.3936
    -5.0901  -5.0901  -4.9953  -4.9953  -1.3376  -1.3376  -0.8382  -0.8382
    -0.0602  -0.0602   0.0692   0.0692   0.2120   0.2120   0.3485   0.3485

          k =-0.4996-0.4873-0.7231 ( 25080 PWs)   bands (ev):

   -24.1760 -24.1760  -9.7832  -9.7832  -9.4766  -9.4766  -9.4311  -9.4311
    -5.1480  -5.1480  -4.7036  -4.7036  -1.6252  -1.6252  -0.9978  -0.9978
     0.0413   0.0413   0.0837   0.0837   0.2303   0.2303   0.4495   0.4495

     highest occupied level (ev):     0.5929

!    total energy              =    -156.47294891 Ry
     estimated scf accuracy    <          5.1E-11 Ry

     The total energy is the sum of the following terms:
     one-electron contribution =     -24.42173845 Ry
     hartree contribution      =      26.17589253 Ry
     xc contribution           =     -49.04768202 Ry
     ewald contribution        =    -109.17942097 Ry

     convergence has been achieved in   8 iterations

     Forces acting on atoms (cartesian axes, Ry/au):

     atom    1 type  2   force =     0.00000000    0.00000000    0.00000545
     atom    2 type  2   force =     0.00000000    0.00000000   -0.00000545
     atom    3 type  1   force =     0.00033228    0.00082572   -0.00000866
     atom    4 type  1   force =    -0.00033228   -0.00082572   -0.00000866
     atom    5 type  1   force =     0.00033228   -0.00082572    0.00000866
     atom    6 type  1   force =    -0.00033228    0.00082572    0.00000866
     atom    7 type  3   force =     0.00087099    0.00020014   -0.00001555
     atom    8 type  3   force =    -0.00087099   -0.00020014   -0.00001555
     atom    9 type  3   force =     0.00087099   -0.00020014    0.00001555
     atom   10 type  3   force =    -0.00087099    0.00020014    0.00001555
     atom   11 type  3   force =    -0.00040426    0.00032503    0.00000244
     atom   12 type  3   force =     0.00040426   -0.00032503    0.00000244
     atom   13 type  3   force =    -0.00040426   -0.00032503   -0.00000244
     atom   14 type  3   force =     0.00040426    0.00032503   -0.00000244
     atom   15 type  3   force =     0.00032829    0.00062474    0.00028332
     atom   16 type  3   force =    -0.00032829   -0.00062474    0.00028332
     atom   17 type  3   force =     0.00032829   -0.00062474   -0.00028332
     atom   18 type  3   force =    -0.00032829    0.00062474   -0.00028332
     atom   19 type  3   force =    -0.00029280   -0.00063566   -0.00029086
     atom   20 type  3   force =     0.00029280    0.00063566   -0.00029086
     atom   21 type  3   force =    -0.00029280    0.00063566    0.00029086
     atom   22 type  3   force =     0.00029280   -0.00063566    0.00029086

     Total force =     0.003472     Total SCF correction =     0.000003


     Computing stress (Cartesian axis) and pressure

          total   stress  (Ry/bohr**3)                   (kbar)     P=      -10.22
  -0.00006453   0.00000000   0.00000000           -9.49        0.00        0.00
   0.00000000  -0.00006491   0.00000000            0.00       -9.55        0.00
   0.00000000   0.00000000  -0.00007891            0.00        0.00      -11.61

     Volume is kept fixed: isostatic pressure set to zero
     Energy error            =      1.0E-03 Ry
     Gradient error          =      8.7E-04 Ry/Bohr
     Cell gradient error     =      1.4E+00 kbar

     number of scf cycles    =   3
     number of bfgs steps    =   2

     enthalpy           old  =    -156.4719534808 Ry
     enthalpy           new  =    -156.4729489079 Ry

     CASE: enthalpy          _new < enthalpy          _old

     new trust radius        =       0.0024130636 bohr
ibrav =      8
 celldm(1) =     12.79689792
 celldm(2) =      1.02538030
 celldm(3) =      0.69063595
Input lattice vectors:
     1.00090989     0.00000000     0.00000000
     0.00000000     1.02631329     0.00000000
     0.00000000     0.00000000     0.69126436
New lattice vectors in INITIAL alat:
     1.00090989     0.00000000     0.00000000
     0.00000000     1.02631329     0.00000000
     0.00000000     0.00000000     0.69126436
New lattice vectors in NEW alat (for information only):
     1.00000000     0.00000000     0.00000000
     0.00000000     1.02538030     0.00000000
     0.00000000     0.00000000     0.69063595
Discrepancy in bohr =     0.000000    0.000000    0.000000
     new conv_thr            =            8.7E-11 Ry

     new unit-cell volume =   1484.04910 a.u.^3 (   219.91339 Ang^3 )
     density =      2.52218 g/cm^3

CELL_PARAMETERS (alat= 12.78526473)
   1.000909890   0.000000000   0.000000000
   0.000000000   1.026313287   0.000000000
   0.000000000   0.000000000   0.691264355

ATOMIC_POSITIONS (crystal)
Ba               0.5000000000        0.5000000000        0.5001037386
Ba               0.0000000000        0.0000000000        0.9998962614
B                0.6103662923        0.2396145807        0.0000598490
B                0.3896337077        0.7603854193        0.0000598490
B                0.1103662923        0.2603854193        0.4999401510
B                0.8896337077        0.7396145807        0.4999401510
H                0.4363000156        0.2916762690        0.0002216682
H                0.5636999844        0.7083237310        0.0002216682
H                0.9363000156        0.2083237310        0.4997783318
H                0.0636999844        0.7916762690        0.4997783318
H                0.7206177407        0.3819834640       -0.0000056770
H                0.2793822593        0.6180165360       -0.0000056770
H                0.2206177407        0.1180165360        0.5000056770
H                0.7793822593        0.8819834640        0.5000056770
H                0.6390549938        0.1433595165        0.7832001282
H                0.3609450062        0.8566404835        0.7832001282
H                0.1390549938        0.3566404835        0.7167998718
H                0.8609450062        0.6433595165        0.7167998718
H                0.3607445691        0.8566849785        0.2168190103
H                0.6392554309        0.1433150215        0.2168190103
H                0.8607445691        0.6433150215        0.2831809897
H                0.1392554309        0.3566849785        0.2831809897



     Writing config-only to output data dir ./pwscf.save/ :
     XML data file
     NEW-OLD atomic charge density approx. for the potential

     total cpu time spent up to now is      246.7 secs

     Self-consistent Calculation

     iteration #  1     ecut=   100.00 Ry     beta= 0.70
     Davidson diagonalization with overlap
     ethr =  1.00E-06,  avg # of iterations =  2.0

     Threshold (ethr) on eigenvalues was too large:
     Diagonalizing with lowered threshold

     Davidson diagonalization with overlap
     ethr =  1.58E-08,  avg # of iterations =  2.0

     total cpu time spent up to now is      260.1 secs

     total energy              =    -156.47296628 Ry
     estimated scf accuracy    <       0.00001039 Ry

     iteration #  2     ecut=   100.00 Ry     beta= 0.70
     Davidson diagonalization with overlap
     ethr =  2.16E-08,  avg # of iterations =  2.0

     total cpu time spent up to now is      267.0 secs

     total energy              =    -156.47296918 Ry
     estimated scf accuracy    <       0.00000196 Ry

     iteration #  3     ecut=   100.00 Ry     beta= 0.70
     Davidson diagonalization with overlap
     ethr =  4.08E-09,  avg # of iterations =  2.0

     total cpu time spent up to now is      273.9 secs

     total energy              =    -156.47296944 Ry
     estimated scf accuracy    <       0.00000003 Ry

     iteration #  4     ecut=   100.00 Ry     beta= 0.70
     Davidson diagonalization with overlap
     ethr =  6.67E-11,  avg # of iterations =  3.0

     total cpu time spent up to now is      282.4 secs

     total energy              =    -156.47296946 Ry
     estimated scf accuracy    <       0.00000001 Ry

     iteration #  5     ecut=   100.00 Ry     beta= 0.70
     Davidson diagonalization with overlap
     ethr =  3.07E-11,  avg # of iterations =  2.0

     total cpu time spent up to now is      289.3 secs

     total energy              =    -156.47296946 Ry
     estimated scf accuracy    <          1.1E-10 Ry

     iteration #  6     ecut=   100.00 Ry     beta= 0.70
     Davidson diagonalization with overlap
     ethr =  2.23E-13,  avg # of iterations =  8.5

     total cpu time spent up to now is      305.3 secs

     total energy              =    -156.47296946 Ry
     estimated scf accuracy    <          1.2E-10 Ry

     iteration #  7     ecut=   100.00 Ry     beta= 0.70
     Davidson diagonalization with overlap
     ethr =  2.23E-13,  avg # of iterations =  2.0

     total cpu time spent up to now is      312.1 secs

     End of self-consistent calculation

          k = 0.0000 0.0000 0.0000 ( 25053 PWs)   bands (ev):

   -24.1922 -24.1846  -9.6810  -9.6028  -9.4308  -9.3964  -9.3635  -9.3081
    -6.1459  -5.2432  -4.6338  -4.4796  -1.8211  -0.9466  -0.9074  -0.5595
    -0.1810  -0.1633  -0.1307  -0.0013   0.1601   0.5310   0.5520   0.5873

          k = 0.0000 0.0000 0.3617 ( 25046 PWs)   bands (ev):

   -24.1853 -24.1800  -9.5947  -9.5925  -9.5695  -9.5423  -9.4147  -9.3960
    -5.6802  -5.0062  -4.7878  -4.6874  -1.4566  -1.2139  -0.7557  -0.7219
    -0.5824  -0.4731  -0.1265   0.1450   0.3450   0.3673   0.4456   0.5845

          k = 0.0000 0.0000-0.7233 ( 25104 PWs)   bands (ev):

   -24.1769 -24.1769  -9.7923  -9.7921  -9.4641  -9.4641  -9.4247  -9.4246
    -5.0083  -5.0078  -4.9220  -4.9215  -1.2175  -1.2170  -1.2031  -1.2017
    -0.1981  -0.1976  -0.1517  -0.1498   0.4020   0.4020   0.4188   0.4191

          k = 0.0000 0.2436 0.0000 ( 25056 PWs)   bands (ev):

   -24.1911 -24.1857  -9.6543  -9.5761  -9.4763  -9.4274  -9.3552  -9.3160
    -5.9601  -5.1612  -4.8957  -4.5995  -1.4827  -1.0831  -1.0217  -0.2722
    -0.2643  -0.2571   0.0380   0.1543   0.2220   0.2436   0.4478   0.5247

          k = 0.0000 0.2436 0.3617 ( 25081 PWs)   bands (ev):

   -24.1845 -24.1808  -9.6334  -9.5971  -9.5290  -9.5182  -9.4222  -9.4149
    -5.5787  -5.0737  -4.8297  -4.7269  -1.2738  -1.2371  -1.0340  -0.4952
    -0.4582  -0.2778  -0.2570   0.1941   0.2758   0.3103   0.4200   0.4731

          k = 0.0000 0.2436-0.7233 ( 25092 PWs)   bands (ev):

   -24.1769 -24.1769  -9.8045  -9.8044  -9.4480  -9.4480  -9.4240  -9.4240
    -5.2601  -5.2601  -4.6608  -4.6608  -1.3290  -1.3284  -1.0402  -1.0395
    -0.1332  -0.1331  -0.1075  -0.1058   0.2446   0.2446   0.4114   0.4116

          k = 0.0000-0.4872 0.0000 ( 25038 PWs)   bands (ev):

   -24.1884 -24.1884  -9.5808  -9.5808  -9.4975  -9.4975  -9.3354  -9.3354
    -5.4914  -5.4914  -4.8660  -4.8660  -1.1983  -1.1983  -0.5771  -0.5771
    -0.3370  -0.3370   0.1334   0.1334   0.2749   0.2749   0.3900   0.3900

          k = 0.0000-0.4872 0.3617 ( 25068 PWs)   bands (ev):

   -24.1827 -24.1827  -9.6318  -9.6318  -9.4819  -9.4819  -9.4463  -9.4463
    -5.3249  -5.3249  -4.8022  -4.8022  -1.2178  -1.2178  -0.8179  -0.8179
    -0.2327  -0.2327   0.0454   0.0454   0.1863   0.1863   0.3974   0.3974

          k = 0.0000-0.4872-0.7233 ( 25068 PWs)   bands (ev):

   -24.1769 -24.1769  -9.8156  -9.8156  -9.4351  -9.4351  -9.4211  -9.4211
    -5.3785  -5.3785  -4.5335  -4.5335  -1.4147  -1.4147  -0.8127  -0.8127
    -0.2032  -0.2032  -0.0273  -0.0273   0.0571   0.0571   0.4469   0.4469

          k = 0.2498 0.0000 0.0000 ( 25049 PWs)   bands (ev):

   -24.1910 -24.1857  -9.6463  -9.5854  -9.4687  -9.4409  -9.3552  -9.3160
    -5.9688  -5.2818  -4.6671  -4.6217  -1.6377  -0.8168  -0.8158  -0.6761
    -0.1434  -0.1133  -0.0416   0.0109   0.1171   0.1277   0.4977   0.5337

          k = 0.2498 0.0000 0.3617 ( 25068 PWs)   bands (ev):

   -24.1845 -24.1808  -9.6248  -9.6075  -9.5547  -9.4970  -9.4364  -9.4041
    -5.5402  -4.9985  -4.8154  -4.8086  -1.4237  -1.1955  -1.0371  -0.5537
    -0.5299  -0.2750  -0.0547   0.0778   0.2048   0.3353   0.5134   0.5413

          k = 0.2498 0.0000-0.7233 ( 25040 PWs)   bands (ev):

   -24.1769 -24.1769  -9.8085  -9.8084  -9.4525  -9.4524  -9.4215  -9.4215
    -5.0710  -5.0707  -4.8319  -4.8316  -1.6656  -1.6652  -0.7905  -0.7902
    -0.2112  -0.2109   0.0945   0.0959   0.2196   0.2197   0.4540   0.4543

          k = 0.2498 0.2436 0.0000 ( 25028 PWs)   bands (ev):

   -24.1903 -24.1865  -9.6699  -9.5646  -9.5130  -9.4025  -9.3492  -9.3215
    -5.8329  -5.2434  -4.8848  -4.6612  -1.3668  -1.0507  -0.8324  -0.3874
    -0.3070  -0.2644   0.0119   0.1636   0.1704   0.2545   0.3155   0.4574

          k = 0.2498 0.2436 0.3617 ( 25070 PWs)   bands (ev):

   -24.1840 -24.1813  -9.6264  -9.5916  -9.5867  -9.4810  -9.4442  -9.3988
    -5.4550  -5.0273  -4.9079  -4.8024  -1.3876  -1.1476  -1.0759  -0.5444
    -0.3808  -0.2138  -0.1157   0.0955   0.1867   0.2976   0.4399   0.5209

          k = 0.2498 0.2436-0.7233 ( 25048 PWs)   bands (ev):

   -24.1769 -24.1769  -9.8149  -9.7939  -9.4704  -9.4364  -9.4278  -9.4222
    -5.2672  -5.1061  -4.7905  -4.6253  -1.6423  -1.5684  -0.8549  -0.7653
    -0.2541  -0.2537   0.0712   0.1214   0.2404   0.2756   0.4066   0.4340

          k = 0.2498-0.4872 0.0000 ( 25052 PWs)   bands (ev):

   -24.1884 -24.1884  -9.6465  -9.6465  -9.4328  -9.4328  -9.3351  -9.3351
    -5.4868  -5.4868  -4.8624  -4.8624  -1.1055  -1.1055  -0.5881  -0.5881
    -0.3704  -0.3704   0.0764   0.0764   0.3076   0.3076   0.3212   0.3212

          k = 0.2498-0.4872 0.3617 ( 25086 PWs)   bands (ev):

   -24.1826 -24.1826  -9.6218  -9.6218  -9.5337  -9.5337  -9.4108  -9.4108
    -5.2419  -5.2419  -4.8688  -4.8688  -1.2982  -1.2982  -0.7638  -0.7638
    -0.2415  -0.2415   0.0652   0.0652   0.1959   0.1959   0.4149   0.4149

          k = 0.2498-0.4872-0.7233 ( 25060 PWs)   bands (ev):

   -24.1769 -24.1769  -9.8013  -9.8013  -9.4550  -9.4550  -9.4270  -9.4270
    -5.2805  -5.2805  -4.6058  -4.6058  -1.5364  -1.5364  -0.8759  -0.8759
    -0.1471  -0.1471  -0.0196  -0.0196   0.2597   0.2597   0.4264   0.4264

          k =-0.4995 0.0000 0.0000 ( 24988 PWs)   bands (ev):

   -24.1884 -24.1884  -9.5630  -9.5630  -9.5225  -9.5225  -9.3354  -9.3354
    -5.5661  -5.5661  -4.7188  -4.7188  -1.2318  -1.2318  -0.4688  -0.4688
    -0.1057  -0.1057  -0.1052  -0.1052   0.0007   0.0007   0.3923   0.3923

          k =-0.4995 0.0000 0.3617 ( 25064 PWs)   bands (ev):

   -24.1826 -24.1826  -9.6345  -9.6345  -9.5004  -9.5004  -9.4346  -9.4346
    -5.2112  -5.2112  -4.8708  -4.8708  -1.3457  -1.3457  -0.8174  -0.8174
    -0.2485  -0.2485  -0.0637  -0.0637   0.3014   0.3014   0.5003   0.5003

          k =-0.4995 0.0000-0.7233 ( 25092 PWs)   bands (ev):

   -24.1769 -24.1769  -9.8235  -9.8235  -9.4434  -9.4434  -9.4169  -9.4169
    -5.1062  -5.1062  -4.7674  -4.7674  -1.8690  -1.8690  -0.5204  -0.5204
    -0.2204  -0.2204  -0.0491  -0.0491   0.3994   0.3994   0.4175   0.4175

          k =-0.4995 0.2436 0.0000 ( 25050 PWs)   bands (ev):

   -24.1883 -24.1883  -9.6452  -9.6452  -9.4378  -9.4378  -9.3351  -9.3351
    -5.5284  -5.5284  -4.7847  -4.7847  -1.1334  -1.1334  -0.4761  -0.4761
    -0.3050  -0.3050  -0.1380  -0.1380   0.2208   0.2208   0.3723   0.3723

          k =-0.4995 0.2436 0.3617 ( 25060 PWs)   bands (ev):

   -24.1826 -24.1826  -9.6236  -9.6236  -9.5378  -9.5378  -9.4097  -9.4097
    -5.1682  -5.1682  -4.9198  -4.9198  -1.3510  -1.3510  -0.7955  -0.7955
    -0.2132  -0.2132  -0.0153  -0.0153   0.2920   0.2920   0.4366   0.4366

          k =-0.4995 0.2436-0.7233 ( 25064 PWs)   bands (ev):

   -24.1769 -24.1769  -9.8056  -9.8056  -9.4574  -9.4574  -9.4262  -9.4262
    -5.1309  -5.1309  -4.7360  -4.7360  -1.7735  -1.7735  -0.7198  -0.7198
    -0.1746  -0.1746   0.0158   0.0158   0.3426   0.3426   0.4748   0.4748

          k =-0.4995-0.4872 0.0000 ( 25096 PWs)   bands (ev):

   -24.1883 -24.1883  -9.6855  -9.6855  -9.3949  -9.3949  -9.3348  -9.3348
    -5.4838  -5.4838  -4.8565  -4.8565  -0.9920  -0.9920  -0.6206  -0.6206
    -0.4008  -0.4008   0.0498   0.0498   0.2219   0.2219   0.3373   0.3373

          k =-0.4995-0.4872 0.3617 ( 25056 PWs)   bands (ev):

   -24.1826 -24.1826  -9.6022  -9.6022  -9.5759  -9.5759  -9.3946  -9.3946
    -5.0942  -5.0942  -4.9995  -4.9995  -1.3377  -1.3377  -0.8400  -0.8400
    -0.0627  -0.0627   0.0656   0.0656   0.2084   0.2084   0.3461   0.3461

          k =-0.4995-0.4872-0.7233 ( 25080 PWs)   bands (ev):

   -24.1769 -24.1769  -9.7853  -9.7853  -9.4772  -9.4772  -9.4321  -9.4321
    -5.1527  -5.1527  -4.7074  -4.7074  -1.6248  -1.6248  -0.9984  -0.9984
     0.0387   0.0387   0.0796   0.0796   0.2260   0.2260   0.4467   0.4467

     highest occupied level (ev):     0.5873

!    total energy              =    -156.47296946 Ry
     estimated scf accuracy    <          7.7E-12 Ry

     The total energy is the sum of the following terms:
     one-electron contribution =     -24.48237407 Ry
     hartree contribution      =      26.20616697 Ry
     xc contribution           =     -49.05378671 Ry
     ewald contribution        =    -109.14297565 Ry

     convergence has been achieved in   7 iterations

     Forces acting on atoms (cartesian axes, Ry/au):

     atom    1 type  2   force =     0.00000000    0.00000000    0.00000403
     atom    2 type  2   force =     0.00000000    0.00000000   -0.00000403
     atom    3 type  1   force =     0.00032713    0.00065430   -0.00000793
     atom    4 type  1   force =    -0.00032713   -0.00065430   -0.00000793
     atom    5 type  1   force =     0.00032713   -0.00065430    0.00000793
     atom    6 type  1   force =    -0.00032713    0.00065430    0.00000793
     atom    7 type  3   force =     0.00033015    0.00035295   -0.00001582
     atom    8 type  3   force =    -0.00033015   -0.00035295   -0.00001582
     atom    9 type  3   force =     0.00033015   -0.00035295    0.00001582
     atom   10 type  3   force =    -0.00033015    0.00035295    0.00001582
     atom   11 type  3   force =    -0.00000639    0.00083200    0.00000191
     atom   12 type  3   force =     0.00000639   -0.00083200    0.00000191
     atom   13 type  3   force =    -0.00000639   -0.00083200   -0.00000191
     atom   14 type  3   force =     0.00000639    0.00083200   -0.00000191
     atom   15 type  3   force =     0.00041270    0.00036724   -0.00025626
     atom   16 type  3   force =    -0.00041270   -0.00036724   -0.00025626
     atom   17 type  3   force =     0.00041270   -0.00036724    0.00025626
     atom   18 type  3   force =    -0.00041270    0.00036724    0.00025626
     atom   19 type  3   force =    -0.00037965   -0.00037637    0.00024963
     atom   20 type  3   force =     0.00037965    0.00037637    0.00024963
     atom   21 type  3   force =    -0.00037965    0.00037637   -0.00024963
     atom   22 type  3   force =     0.00037965   -0.00037637   -0.00024963

     Total force =     0.002953     Total SCF correction =     0.000001


     Computing stress (Cartesian axis) and pressure

          total   stress  (Ry/bohr**3)                   (kbar)     P=       -9.47
  -0.00006005   0.00000000   0.00000000           -8.83        0.00        0.00
   0.00000000  -0.00006059   0.00000000            0.00       -8.91        0.00
   0.00000000   0.00000000  -0.00007252            0.00        0.00      -10.67

     Volume is kept fixed: isostatic pressure set to zero
     Energy error            =      2.1E-05 Ry
     Gradient error          =      8.3E-04 Ry/Bohr
     Cell gradient error     =      1.2E+00 kbar

     number of scf cycles    =   4
     number of bfgs steps    =   3

     enthalpy           old  =    -156.4729489079 Ry
     enthalpy           new  =    -156.4729694585 Ry

     CASE: enthalpy          _new < enthalpy          _old

     new trust radius        =       0.0046743788 bohr
ibrav =      8
 celldm(1) =     12.80102026
 celldm(2) =      1.02534163
 celldm(3) =      0.68999497
Input lattice vectors:
     1.00123232     0.00000000     0.00000000
     0.00000000     1.02660518     0.00000000
     0.00000000     0.00000000     0.69084526
New lattice vectors in INITIAL alat:
     1.00123232     0.00000000     0.00000000
     0.00000000     1.02660518     0.00000000
     0.00000000     0.00000000     0.69084526
New lattice vectors in NEW alat (for information only):
     1.00000000     0.00000000     0.00000000
     0.00000000     1.02534163     0.00000000
     0.00000000     0.00000000     0.68999497
Discrepancy in bohr =     0.000000    0.000000    0.000000
     new conv_thr            =            2.1E-12 Ry

     new unit-cell volume =   1484.04910 a.u.^3 (   219.91339 Ang^3 )
     density =      2.52218 g/cm^3

CELL_PARAMETERS (alat= 12.78526473)
   1.001232320   0.000000000   0.000000000
   0.000000000   1.026605177   0.000000000
   0.000000000   0.000000000   0.690845265

ATOMIC_POSITIONS (crystal)
Ba               0.5000000000        0.5000000000        0.5001051931
Ba               0.0000000000        0.0000000000        0.9998948069
B                0.6104364281        0.2397681979        0.0000572837
B                0.3895635719        0.7602318021        0.0000572837
B                0.1104364281        0.2602318021        0.4999427163
B                0.8895635719        0.7397681979        0.4999427163
H                0.4364745018        0.2917203308        0.0002167786
H                0.5635254982        0.7082796692        0.0002167786
H                0.9364745018        0.2082796692        0.4997832214
H                0.0635254982        0.7917203308        0.4997832214
H                0.7205429741        0.3820634066       -0.0000049819
H                0.2794570259        0.6179365934       -0.0000049819
H                0.2205429741        0.1179365934        0.5000049819
H                0.7794570259        0.8820634066        0.5000049819
H                0.6391265448        0.1434898689        0.7832647356
H                0.3608734552        0.8565101311        0.7832647356
H                0.1391265448        0.3565101311        0.7167352644
H                0.8608734552        0.6434898689        0.7167352644
H                0.3606804113        0.8565525211        0.2167522493
H                0.6393195887        0.1434474789        0.2167522493
H                0.8606804113        0.6434474789        0.2832477507
H                0.1393195887        0.3565525211        0.2832477507



     Writing config-only to output data dir ./pwscf.save/ :
     XML data file
     NEW-OLD atomic charge density approx. for the potential

     total cpu time spent up to now is      320.5 secs

     Self-consistent Calculation

     iteration #  1     ecut=   100.00 Ry     beta= 0.70
     Davidson diagonalization with overlap
     ethr =  1.00E-06,  avg # of iterations =  2.0

     Threshold (ethr) on eigenvalues was too large:
     Diagonalizing with lowered threshold

     Davidson diagonalization with overlap
     ethr =  1.44E-08,  avg # of iterations =  3.0

     total cpu time spent up to now is      334.7 secs

     total energy              =    -156.47299291 Ry
     estimated scf accuracy    <       0.00000943 Ry

     iteration #  2     ecut=   100.00 Ry     beta= 0.70
     Davidson diagonalization with overlap
     ethr =  1.96E-08,  avg # of iterations =  2.0

     total cpu time spent up to now is      341.6 secs

     total energy              =    -156.47299508 Ry
     estimated scf accuracy    <       0.00000104 Ry

     iteration #  3     ecut=   100.00 Ry     beta= 0.70
     Davidson diagonalization with overlap
     ethr =  2.16E-09,  avg # of iterations =  2.0

     total cpu time spent up to now is      348.5 secs

     total energy              =    -156.47299523 Ry
     estimated scf accuracy    <       0.00000003 Ry

     iteration #  4     ecut=   100.00 Ry     beta= 0.70
     Davidson diagonalization with overlap
     ethr =  5.40E-11,  avg # of iterations =  4.7

     total cpu time spent up to now is      357.1 secs

     total energy              =    -156.47299524 Ry
     estimated scf accuracy    <          5.2E-09 Ry

     iteration #  5     ecut=   100.00 Ry     beta= 0.70
     Davidson diagonalization with overlap
     ethr =  1.09E-11,  avg # of iterations =  4.2

     total cpu time spent up to now is      365.3 secs

     total energy              =    -156.47299525 Ry
     estimated scf accuracy    <          1.1E-10 Ry

     iteration #  6     ecut=   100.00 Ry     beta= 0.70
     Davidson diagonalization with overlap
     ethr =  2.20E-13,  avg # of iterations =  6.4

     total cpu time spent up to now is      377.7 secs

     total energy              =    -156.47299525 Ry
     estimated scf accuracy    <          3.4E-12 Ry

     iteration #  7     ecut=   100.00 Ry     beta= 0.70
     Davidson diagonalization with overlap
     ethr =  1.00E-13,  avg # of iterations =  1.7

     total cpu time spent up to now is      383.3 secs

     End of self-consistent calculation

          k = 0.0000 0.0000 0.0000 ( 25053 PWs)   bands (ev):

   -24.1920 -24.1845  -9.6816  -9.6032  -9.4311  -9.3966  -9.3633  -9.3080
    -6.1485  -5.2471  -4.6374  -4.4838  -1.8241  -0.9489  -0.9091  -0.5647
    -0.1805  -0.1681  -0.1276  -0.0012   0.1625   0.5270   0.5485   0.5804

          k = 0.0000 0.0000 0.3619 ( 25046 PWs)   bands (ev):

   -24.1851 -24.1798  -9.5950  -9.5936  -9.5708  -9.5424  -9.4149  -9.3960
    -5.6815  -5.0085  -4.7922  -4.6923  -1.4577  -1.2155  -0.7580  -0.7240
    -0.5828  -0.4725  -0.1285   0.1430   0.3420   0.3620   0.4432   0.5788

          k = 0.0000 0.0000-0.7238 ( 25104 PWs)   bands (ev):

   -24.1766 -24.1766  -9.7945  -9.7944  -9.4638  -9.4637  -9.4247  -9.4247
    -5.0090  -5.0086  -4.9274  -4.9269  -1.2168  -1.2163  -1.2048  -1.2034
    -0.2005  -0.2000  -0.1536  -0.1518   0.3960   0.3961   0.4158   0.4160

          k = 0.0000 0.2435 0.0000 ( 25056 PWs)   bands (ev):

   -24.1909 -24.1855  -9.6549  -9.5766  -9.4766  -9.4275  -9.3550  -9.3159
    -5.9628  -5.1657  -4.8983  -4.6034  -1.4865  -1.0853  -1.0238  -0.2708
    -0.2625  -0.2615   0.0327   0.1552   0.2159   0.2451   0.4438   0.5209

          k = 0.0000 0.2435 0.3619 ( 25081 PWs)   bands (ev):

   -24.1843 -24.1805  -9.6342  -9.5981  -9.5297  -9.5184  -9.4225  -9.4149
    -5.5803  -5.0764  -4.8335  -4.7314  -1.2753  -1.2385  -1.0358  -0.4950
    -0.4594  -0.2811  -0.2579   0.1916   0.2724   0.3047   0.4177   0.4690

          k = 0.0000 0.2435-0.7238 ( 25092 PWs)   bands (ev):

   -24.1766 -24.1766  -9.8066  -9.8065  -9.4478  -9.4478  -9.4240  -9.4240
    -5.2631  -5.2631  -4.6638  -4.6638  -1.3306  -1.3300  -1.0397  -1.0389
    -0.1361  -0.1360  -0.1100  -0.1083   0.2419   0.2419   0.4058   0.4060

          k = 0.0000-0.4870 0.0000 ( 25038 PWs)   bands (ev):

   -24.1882 -24.1882  -9.5815  -9.5815  -9.4975  -9.4975  -9.3353  -9.3353
    -5.4948  -5.4948  -4.8693  -4.8693  -1.2009  -1.2009  -0.5815  -0.5815
    -0.3349  -0.3349   0.1278   0.1278   0.2758   0.2758   0.3863   0.3863

          k = 0.0000-0.4870 0.3619 ( 25068 PWs)   bands (ev):

   -24.1824 -24.1824  -9.6326  -9.6326  -9.4824  -9.4824  -9.4464  -9.4464
    -5.3272  -5.3272  -4.8060  -4.8060  -1.2191  -1.2191  -0.8195  -0.8195
    -0.2344  -0.2344   0.0445   0.0445   0.1805   0.1805   0.3947   0.3947

          k = 0.0000-0.4870-0.7238 ( 25068 PWs)   bands (ev):

   -24.1766 -24.1766  -9.8176  -9.8176  -9.4349  -9.4349  -9.4212  -9.4212
    -5.3816  -5.3816  -4.5362  -4.5362  -1.4163  -1.4163  -0.8119  -0.8119
    -0.2070  -0.2070  -0.0294  -0.0294   0.0537   0.0537   0.4421   0.4421

          k = 0.2497 0.0000 0.0000 ( 25049 PWs)   bands (ev):

   -24.1909 -24.1855  -9.6470  -9.5858  -9.4691  -9.4410  -9.3550  -9.3159
    -5.9717  -5.2858  -4.6707  -4.6255  -1.6408  -0.8200  -0.8183  -0.6790
    -0.1410  -0.1122  -0.0403   0.0052   0.1187   0.1251   0.4933   0.5269

          k = 0.2497 0.0000 0.3619 ( 25068 PWs)   bands (ev):

[...]
        22        H      tau(  22) = (   0.1508568   0.3590216   0.1921486  )

     number of k points=    27
                       cart. coord. in units 2pi/alat
        k(    1) = (   0.0000000   0.0000000   0.0000000), wk =   0.0312500
        k(    2) = (   0.0000000   0.0000000   0.3651214), wk =   0.0625000
        k(    3) = (   0.0000000   0.0000000  -0.7302427), wk =   0.0312500
        k(    4) = (   0.0000000   0.2438886   0.0000000), wk =   0.0625000
        k(    5) = (   0.0000000   0.2438886   0.3651214), wk =   0.1250000
        k(    6) = (   0.0000000   0.2438886  -0.7302427), wk =   0.0625000
        k(    7) = (   0.0000000  -0.4877773   0.0000000), wk =   0.0312500
        k(    8) = (   0.0000000  -0.4877773   0.3651214), wk =   0.0625000
        k(    9) = (   0.0000000  -0.4877773  -0.7302427), wk =   0.0312500
        k(   10) = (   0.2470996   0.0000000   0.0000000), wk =   0.0625000
        k(   11) = (   0.2470996   0.0000000   0.3651214), wk =   0.1250000
        k(   12) = (   0.2470996   0.0000000  -0.7302427), wk =   0.0625000
        k(   13) = (   0.2470996   0.2438886   0.0000000), wk =   0.1250000
        k(   14) = (   0.2470996   0.2438886   0.3651214), wk =   0.2500000
        k(   15) = (   0.2470996   0.2438886  -0.7302427), wk =   0.1250000
        k(   16) = (   0.2470996  -0.4877773   0.0000000), wk =   0.0625000
        k(   17) = (   0.2470996  -0.4877773   0.3651214), wk =   0.1250000
        k(   18) = (   0.2470996  -0.4877773  -0.7302427), wk =   0.0625000
        k(   19) = (  -0.4941993   0.0000000   0.0000000), wk =   0.0312500
        k(   20) = (  -0.4941993   0.0000000   0.3651214), wk =   0.0625000
        k(   21) = (  -0.4941993   0.0000000  -0.7302427), wk =   0.0312500
        k(   22) = (  -0.4941993   0.2438886   0.0000000), wk =   0.0625000
        k(   23) = (  -0.4941993   0.2438886   0.3651214), wk =   0.1250000
        k(   24) = (  -0.4941993   0.2438886  -0.7302427), wk =   0.0625000
        k(   25) = (  -0.4941993  -0.4877773   0.0000000), wk =   0.0312500
        k(   26) = (  -0.4941993  -0.4877773   0.3651214), wk =   0.0625000
        k(   27) = (  -0.4941993  -0.4877773  -0.7302427), wk =   0.0312500

     Dense  grid:   567123 G-vectors     FFT dimensions: ( 120, 120,  80)

     Smooth grid:   200363 G-vectors     FFT dimensions: (  90,  90,  60)

     Estimated max dynamical RAM per process >     122.95 MB

     Estimated total dynamical RAM >       1.92 GB

     Initial potential from superposition of free atoms

     starting charge      47.9682, renormalised to      48.0000
     Starting wfcs are   42 randomized atomic wfcs

     total cpu time spent up to now is     3890.0 secs

     Self-consistent Calculation

     iteration #  1     ecut=   100.00 Ry     beta= 0.70
     Davidson diagonalization with overlap
     ethr =  1.00E-06,  avg # of iterations = 11.0

     total cpu time spent up to now is     3912.8 secs

     total energy              =    -155.83626663 Ry
     estimated scf accuracy    <       2.26105571 Ry

     iteration #  2     ecut=   100.00 Ry     beta= 0.70
     Davidson diagonalization with overlap
     ethr =  4.71E-03,  avg # of iterations =  2.0

     total cpu time spent up to now is     3919.7 secs

     total energy              =    -156.39726520 Ry
     estimated scf accuracy    <       0.46877128 Ry

     iteration #  3     ecut=   100.00 Ry     beta= 0.70
     Davidson diagonalization with overlap
     ethr =  9.77E-04,  avg # of iterations =  2.0

     total cpu time spent up to now is     3926.6 secs

     total energy              =    -156.47091511 Ry
     estimated scf accuracy    <       0.00566842 Ry

     iteration #  4     ecut=   100.00 Ry     beta= 0.70
     Davidson diagonalization with overlap
     ethr =  1.18E-05,  avg # of iterations =  3.3

     total cpu time spent up to now is     3935.3 secs

     total energy              =    -156.47300492 Ry
     estimated scf accuracy    <       0.00225500 Ry

     iteration #  5     ecut=   100.00 Ry     beta= 0.70
     Davidson diagonalization with overlap
     ethr =  4.70E-06,  avg # of iterations =  3.2

     total cpu time spent up to now is     3942.6 secs

     total energy              =    -156.47364634 Ry
     estimated scf accuracy    <       0.00005025 Ry

     iteration #  6     ecut=   100.00 Ry     beta= 0.70
     Davidson diagonalization with overlap
     ethr =  1.05E-07,  avg # of iterations =  6.2

     total cpu time spent up to now is     3954.5 secs

     total energy              =    -156.47374528 Ry
     estimated scf accuracy    <       0.00001882 Ry

     iteration #  7     ecut=   100.00 Ry     beta= 0.70
     Davidson diagonalization with overlap
     ethr =  3.92E-08,  avg # of iterations =  2.3

     total cpu time spent up to now is     3961.6 secs

     total energy              =    -156.47374911 Ry
     estimated scf accuracy    <       0.00000020 Ry

     iteration #  8     ecut=   100.00 Ry     beta= 0.70
     Davidson diagonalization with overlap
     ethr =  4.12E-10,  avg # of iterations =  6.6

     total cpu time spent up to now is     3974.3 secs

     total energy              =    -156.47374958 Ry
     estimated scf accuracy    <       0.00000009 Ry

     iteration #  9     ecut=   100.00 Ry     beta= 0.70
     Davidson diagonalization with overlap
     ethr =  1.87E-10,  avg # of iterations =  2.1

     total cpu time spent up to now is     3981.0 secs

     total energy              =    -156.47374958 Ry
     estimated scf accuracy    <          9.5E-09 Ry

     iteration # 10     ecut=   100.00 Ry     beta= 0.70
     Davidson diagonalization with overlap
     ethr =  1.97E-11,  avg # of iterations =  4.6

     total cpu time spent up to now is     3989.4 secs

     total energy              =    -156.47374959 Ry
     estimated scf accuracy    <          1.3E-10 Ry

     iteration # 11     ecut=   100.00 Ry     beta= 0.70
     Davidson diagonalization with overlap
     ethr =  2.61E-13,  avg # of iterations =  8.5

     total cpu time spent up to now is     4005.9 secs

     total energy              =    -156.47374959 Ry
     estimated scf accuracy    <          6.8E-11 Ry

     iteration # 12     ecut=   100.00 Ry     beta= 0.70
     Davidson diagonalization with overlap
     ethr =  1.42E-13,  avg # of iterations =  2.1

     total cpu time spent up to now is     4013.4 secs

     total energy              =    -156.47374959 Ry
     estimated scf accuracy    <          2.1E-12 Ry

     iteration # 13     ecut=   100.00 Ry     beta= 0.70
     Davidson diagonalization with overlap
     ethr =  1.00E-13,  avg # of iterations =  1.0

     total cpu time spent up to now is     4018.7 secs

     total energy              =    -156.47374959 Ry
     estimated scf accuracy    <          1.2E-12 Ry

     iteration # 14     ecut=   100.00 Ry     beta= 0.70
     Davidson diagonalization with overlap
     ethr =  1.00E-13,  avg # of iterations =  1.0

     total cpu time spent up to now is     4024.0 secs

     End of self-consistent calculation

          k = 0.0000 0.0000 0.0000 ( 25039 PWs)   bands (ev):

   -24.1443 -24.1366  -9.6648  -9.5922  -9.4034  -9.3650  -9.3254  -9.2684
    -6.1730  -5.2669  -4.6443  -4.5278  -1.8696  -0.9480  -0.9206  -0.5639
    -0.2950  -0.2427  -0.1089  -0.1061   0.1683   0.5101   0.5169   0.5565

          k = 0.0000 0.0000 0.3651 ( 25060 PWs)   bands (ev):

   -24.1366 -24.1312  -9.5812  -9.5718  -9.5591  -9.5225  -9.3847  -9.3623
    -5.6738  -4.9955  -4.8185  -4.7431  -1.4762  -1.2844  -0.8989  -0.7261
    -0.5743  -0.4825  -0.1348   0.1233   0.3179   0.3252   0.3891   0.5262

          k = 0.0000 0.0000-0.7302 ( 25092 PWs)   bands (ev):

   -24.1272 -24.1272  -9.8022  -9.8022  -9.4302  -9.4302  -9.3939  -9.3939
    -4.9805  -4.9805  -4.9696  -4.9696  -1.3157  -1.3156  -1.2384  -1.2383
    -0.1930  -0.1929  -0.1558  -0.1556   0.3264   0.3265   0.3896   0.3897

          k = 0.0000 0.2439 0.0000 ( 25054 PWs)   bands (ev):

   -24.1431 -24.1378  -9.6374  -9.5643  -9.4493  -9.3985  -9.3169  -9.2766
    -5.9882  -5.2064  -4.8873  -4.6368  -1.5500  -1.1091  -1.0207  -0.2994
    -0.2737  -0.2703  -0.0636   0.0771   0.1944   0.2079   0.4252   0.4911

          k = 0.0000 0.2439 0.3651 ( 25066 PWs)   bands (ev):

   -24.1358 -24.1319  -9.6187  -9.5851  -9.5093  -9.4976  -9.3934  -9.3827
    -5.5730  -5.0678  -4.8578  -4.7758  -1.3074  -1.3059  -1.1086  -0.5226
    -0.4971  -0.2831  -0.2739   0.1584   0.2584   0.2704   0.3774   0.4197

          k = 0.0000 0.2439-0.7302 ( 25068 PWs)   bands (ev):

   -24.1272 -24.1272  -9.8136  -9.8136  -9.4144  -9.4143  -9.3936  -9.3936
    -5.2686  -5.2686  -4.6712  -4.6712  -1.4517  -1.4517  -1.0572  -1.0571
    -0.1258  -0.1257  -0.1140  -0.1140   0.2153   0.2154   0.3461   0.3462

          k = 0.0000-0.4878 0.0000 ( 25054 PWs)   bands (ev):

   -24.1404 -24.1404  -9.5640  -9.5640  -9.4725  -9.4725  -9.2966  -9.2966
    -5.5275  -5.5275  -4.8777  -4.8777  -1.2561  -1.2561  -0.5887  -0.5887
    -0.3406  -0.3406   0.0965   0.0965   0.2005   0.2005   0.3451   0.3451

          k = 0.0000-0.4878 0.3651 ( 25100 PWs)   bands (ev):

   -24.1338 -24.1338  -9.6185  -9.6185  -9.4612  -9.4612  -9.4163  -9.4163
    -5.3213  -5.3213  -4.8370  -4.8370  -1.2928  -1.2928  -0.8457  -0.8457
    -0.2767  -0.2767   0.0559   0.0559   0.1305   0.1305   0.3621   0.3621

          k = 0.0000-0.4878-0.7302 ( 25080 PWs)   bands (ev):

   -24.1272 -24.1272  -9.8241  -9.8241  -9.4011  -9.4011  -9.3914  -9.3914
    -5.3883  -5.3883  -4.5410  -4.5410  -1.5442  -1.5442  -0.8409  -0.8409
    -0.1717  -0.1717  -0.0269  -0.0269   0.0011   0.0011   0.3986   0.3986

          k = 0.2471 0.0000 0.0000 ( 25045 PWs)   bands (ev):

   -24.1431 -24.1377  -9.6294  -9.5719  -9.4423  -9.4110  -9.3169  -9.2766
    -5.9988  -5.3085  -4.6821  -4.6652  -1.6775  -0.8524  -0.8257  -0.6951
    -0.1884  -0.1173  -0.1158  -0.0906   0.1050   0.1299   0.4581   0.4961

          k = 0.2471 0.0000 0.3651 ( 25057 PWs)   bands (ev):

   -24.1358 -24.1319  -9.6115  -9.5925  -9.5345  -9.4770  -9.4066  -9.3720
    -5.5406  -4.9898  -4.8627  -4.8454  -1.4512  -1.2369  -1.1130  -0.5603
    -0.5359  -0.3084  -0.1192   0.0447   0.1781   0.3152   0.4516   0.4828

          k = 0.2471 0.0000-0.7302 ( 25076 PWs)   bands (ev):

   -24.1272 -24.1272  -9.8170  -9.8170  -9.4191  -9.4191  -9.3902  -9.3902
    -5.1146  -5.1146  -4.8109  -4.8109  -1.7209  -1.7209  -0.8440  -0.8439
    -0.1956  -0.1955   0.0443   0.0444   0.1693   0.1694   0.4029   0.4030

          k = 0.2471 0.2439 0.0000 ( 25035 PWs)   bands (ev):

   -24.1423 -24.1385  -9.6544  -9.5486  -9.4869  -9.3729  -9.3108  -9.2823
    -5.8695  -5.2958  -4.8823  -4.6803  -1.4294  -1.0853  -0.8563  -0.4083
    -0.3269  -0.2751  -0.0352   0.0957   0.1018   0.2091   0.3159   0.4287

          k = 0.2471 0.2439 0.3651 ( 25067 PWs)   bands (ev):

   -24.1352 -24.1325  -9.6124  -9.5799  -9.5644  -9.4604  -9.4147  -9.3664
    -5.4574  -5.0302  -4.9373  -4.8393  -1.4226  -1.2192  -1.1229  -0.5813
    -0.4063  -0.2516  -0.1366   0.0867   0.1418   0.2653   0.3971   0.4723

          k = 0.2471 0.2439-0.7302 ( 25074 PWs)   bands (ev):

   -24.1272 -24.1272  -9.8233  -9.8036  -9.4355  -9.4041  -9.3954  -9.3917
    -5.2935  -5.1157  -4.8045  -4.6210  -1.7235  -1.6130  -0.9589  -0.8130
    -0.2453  -0.2268   0.0496   0.1231   0.1673   0.2313   0.3669   0.3796

          k = 0.2471-0.4878 0.0000 ( 25058 PWs)   bands (ev):

   -24.1404 -24.1404  -9.6299  -9.6299  -9.4057  -9.4057  -9.2964  -9.2964
    -5.5426  -5.5426  -4.8550  -4.8550  -1.1764  -1.1764  -0.6124  -0.6124
    -0.3768  -0.3768   0.0429   0.0429   0.2378   0.2378   0.3047   0.3047

          k = 0.2471-0.4878 0.3651 ( 25066 PWs)   bands (ev):

   -24.1338 -24.1338  -9.6069  -9.6069  -9.5140  -9.5140  -9.3802  -9.3802
    -5.2498  -5.2498  -4.8948  -4.8948  -1.3515  -1.3515  -0.8254  -0.8254
    -0.2757  -0.2757   0.0383   0.0383   0.1951   0.1951   0.3679   0.3679

          k = 0.2471-0.4878-0.7302 ( 25092 PWs)   bands (ev):

   -24.1272 -24.1272  -9.8106  -9.8106  -9.4201  -9.4201  -9.3966  -9.3966
    -5.2927  -5.2927  -4.6164  -4.6164  -1.6161  -1.6161  -0.9521  -0.9521
    -0.1457  -0.1457  -0.0110  -0.0110   0.2256   0.2256   0.3795   0.3795

          k =-0.4942 0.0000 0.0000 ( 24946 PWs)   bands (ev):

   -24.1404 -24.1404  -9.5475  -9.5475  -9.4941  -9.4941  -9.2967  -9.2967
    -5.5992  -5.5992  -4.7461  -4.7461  -1.2695  -1.2695  -0.4782  -0.4782
    -0.1478  -0.1478  -0.1307  -0.1307  -0.0410  -0.0410   0.3431   0.3431

          k =-0.4942 0.0000 0.3651 ( 25074 PWs)   bands (ev):

   -24.1338 -24.1338  -9.6202  -9.6202  -9.4776  -9.4776  -9.4055  -9.4055
    -5.2228  -5.2228  -4.9004  -4.9004  -1.3806  -1.3806  -0.8501  -0.8501
    -0.2640  -0.2640  -0.1012  -0.1012   0.2541   0.2541   0.4386   0.4386

          k =-0.4942 0.0000-0.7302 ( 25052 PWs)   bands (ev):

   -24.1272 -24.1272  -9.8309  -9.8309  -9.4108  -9.4108  -9.3844  -9.3844
    -5.1688  -5.1688  -4.7305  -4.7305  -1.9140  -1.9140  -0.5762  -0.5762
    -0.1925  -0.1925  -0.0996  -0.0996   0.3427   0.3427   0.3439   0.3439

          k =-0.4942 0.2439 0.0000 ( 25066 PWs)   bands (ev):

   -24.1404 -24.1404  -9.6280  -9.6280  -9.4101  -9.4101  -9.2964  -9.2964
    -5.5794  -5.5794  -4.7883  -4.7883  -1.1906  -1.1906  -0.5168  -0.5168
    -0.3194  -0.3194  -0.1515  -0.1515   0.1646   0.1646   0.3446   0.3446

          k =-0.4942 0.2439 0.3651 ( 25064 PWs)   bands (ev):

   -24.1338 -24.1338  -9.6078  -9.6078  -9.5182  -9.5182  -9.3787  -9.3787
    -5.1876  -5.1876  -4.9392  -4.9392  -1.3885  -1.3885  -0.8549  -0.8549
    -0.2108  -0.2108  -0.0712  -0.0712   0.2672   0.2672   0.3869   0.3869

          k =-0.4942 0.2439-0.7302 ( 25032 PWs)   bands (ev):

   -24.1272 -24.1272  -9.8142  -9.8142  -9.4232  -9.4232  -9.3946  -9.3946
    -5.1676  -5.1676  -4.7264  -4.7264  -1.8214  -1.8214  -0.7968  -0.7968
    -0.1475  -0.1475  -0.0331  -0.0331   0.2879   0.2879   0.4374   0.4374

          k =-0.4942-0.4878 0.0000 ( 25044 PWs)   bands (ev):

   -24.1404 -24.1404  -9.6691  -9.6691  -9.3655  -9.3655  -9.2961  -9.2961
    -5.5578  -5.5578  -4.8316  -4.8316  -1.0822  -1.0822  -0.6531  -0.6531
    -0.4090  -0.4090   0.0095   0.0095   0.2457   0.2457   0.2713   0.2713

          k =-0.4942-0.4878 0.3651 ( 25044 PWs)   bands (ev):

   -24.1338 -24.1338  -9.5785  -9.5785  -9.5654  -9.5654  -9.3623  -9.3623
    -5.1368  -5.1368  -4.9935  -4.9935  -1.3827  -1.3827  -0.9009  -0.9009
    -0.1358  -0.1358   0.0921   0.0921   0.1446   0.1446   0.3427   0.3427

          k =-0.4942-0.4878-0.7302 ( 25056 PWs)   bands (ev):

   -24.1272 -24.1272  -9.7958  -9.7958  -9.4412  -9.4412  -9.4009  -9.4009
    -5.1670  -5.1670  -4.7215  -4.7215  -1.6745  -1.6745  -1.0774  -1.0774
    -0.0225  -0.0225   0.1188   0.1188   0.1722   0.1722   0.4279   0.4279

     highest occupied level (ev):     0.5565

!    total energy              =    -156.47374959 Ry
     estimated scf accuracy    <          8.3E-15 Ry

     The total energy is the sum of the following terms:
     one-electron contribution =     -25.75186103 Ry
     hartree contribution      =      26.84262059 Ry
     xc contribution           =     -49.08932225 Ry
     ewald contribution        =    -108.47518689 Ry

     convergence has been achieved in  14 iterations

     Forces acting on atoms (cartesian axes, Ry/au):

     atom    1 type  2   force =     0.00000000    0.00000000   -0.00000279
     atom    2 type  2   force =     0.00000000    0.00000000    0.00000279
     atom    3 type  1   force =    -0.00000186    0.00000070   -0.00000258
     atom    4 type  1   force =     0.00000186   -0.00000070   -0.00000258
     atom    5 type  1   force =    -0.00000186   -0.00000070    0.00000258
     atom    6 type  1   force =     0.00000186    0.00000070    0.00000258
     atom    7 type  3   force =     0.00000292    0.00000020    0.00000758
     atom    8 type  3   force =    -0.00000292   -0.00000020    0.00000758
     atom    9 type  3   force =     0.00000292   -0.00000020   -0.00000758
     atom   10 type  3   force =    -0.00000292    0.00000020   -0.00000758
     atom   11 type  3   force =    -0.00000221   -0.00000334   -0.00000017
     atom   12 type  3   force =     0.00000221    0.00000334   -0.00000017
     atom   13 type  3   force =    -0.00000221    0.00000334    0.00000017
     atom   14 type  3   force =     0.00000221   -0.00000334    0.00000017
     atom   15 type  3   force =     0.00000297   -0.00000064    0.00000077
     atom   16 type  3   force =    -0.00000297    0.00000064    0.00000077
     atom   17 type  3   force =     0.00000297    0.00000064   -0.00000077
     atom   18 type  3   force =    -0.00000297   -0.00000064   -0.00000077
     atom   19 type  3   force =     0.00000064   -0.00000296   -0.00000427
     atom   20 type  3   force =    -0.00000064    0.00000296   -0.00000427
     atom   21 type  3   force =     0.00000064    0.00000296    0.00000427
     atom   22 type  3   force =    -0.00000064   -0.00000296    0.00000427

     Total force =     0.000023     Total SCF correction =     0.000000


     Computing stress (Cartesian axis) and pressure

          total   stress  (Ry/bohr**3)                   (kbar)     P=       -5.27
  -0.00003577   0.00000000   0.00000000           -5.26        0.00        0.00
   0.00000000  -0.00003580   0.00000000            0.00       -5.27        0.00
   0.00000000   0.00000000  -0.00003580            0.00        0.00       -5.27


     Writing all to output data dir ./pwscf.save/ :
     XML data file, charge density, pseudopotentials, collected wavefunctions

     init_run     :      8.35s CPU      8.64s WALL (       2 calls)
     electrons    :   3418.28s CPU   3530.56s WALL (      59 calls)
     update_pot   :      5.79s CPU      6.33s WALL (      57 calls)
     forces       :    105.09s CPU    106.86s WALL (      59 calls)
     stress       :    370.61s CPU    372.01s WALL (      59 calls)

     Called by init_run:
     wfcinit      :      6.85s CPU      7.06s WALL (       2 calls)
     potinit      :      0.38s CPU      0.39s WALL (       2 calls)
     hinit0       :      0.61s CPU      0.64s WALL (       2 calls)

     Called by electrons:
     c_bands      :   2966.60s CPU   3060.42s WALL (     447 calls)
     sum_band     :    387.58s CPU    403.63s WALL (     447 calls)
     v_of_rho     :     28.10s CPU     29.05s WALL (     459 calls)
     newd         :     37.62s CPU     38.62s WALL (     459 calls)
     mix_rho      :      2.71s CPU      2.89s WALL (     447 calls)

     Called by c_bands:
     init_us_2    :     79.22s CPU     79.93s WALL (   27378 calls)
     cegterg      :   2815.22s CPU   2908.45s WALL (   12069 calls)

     Called by *egterg:
     cdiaghg      :     42.75s CPU     43.03s WALL (   47693 calls)
     h_psi        :   1833.13s CPU   1924.25s WALL (   50555 calls)
     s_psi        :    409.97s CPU    410.64s WALL (   50555 calls)
     g_psi        :      8.00s CPU      8.03s WALL (   38432 calls)

     Called by h_psi:
     h_psi:calbec :    428.08s CPU    436.08s WALL (   50555 calls)
     vloc_psi     :    998.46s CPU   1080.88s WALL (   50555 calls)
     add_vuspsi   :    402.13s CPU    403.01s WALL (   50555 calls)

     General routines
     calbec       :    655.34s CPU    665.49s WALL (   70589 calls)
     fft          :     16.05s CPU     17.10s WALL (    7428 calls)
     ffts         :      1.00s CPU      1.05s WALL (     906 calls)
     fftw         :   1022.37s CPU   1107.07s WALL ( 2076116 calls)
     interpolate  :      1.89s CPU      2.03s WALL (     459 calls)

     Parallel routines

     PWSCF        :      1h 5m CPU      1h 7m WALL


   This run was terminated on:  16:14:15  12Jul2024            

=------------------------------------------------------------------------------=
   JOB DONE.
=------------------------------------------------------------------------------=
