
     Program PWSCF v.7.3.1 starts on 12Jul2024 at 14:17:43 

     This program is part of the open-source Quantum ESPRESSO suite
     for quantum simulation of materials; please cite
         "P. Giannozzi et al., J. Phys.:Condens. Matter 21 395502 (2009);
         "P. Giannozzi et al., J. Phys.:Condens. Matter 29 465901 (2017);
         "P. Giannozzi et al., J. Chem. Phys. 152 154105 (2020);
          URL http://www.quantum-espresso.org", 
     in publications or presentations arising from this work. More details at
     http://www.quantum-espresso.org/quote

     Parallel version (MPI), running on    12 processors

     MPI processes distributed on     1 nodes
     61748 MiB available memory on the printing compute node when the environment starts

     Waiting for input...
     Reading input from standard input

     Current dimensions of program PWSCF are:
     Max number of different atomic species (ntypx) = 10
     Max number of k-points (npk) =  40000
     Max angular momentum in pseudopotentials (lmaxx) =  4

     R & G space division:  proc/nbgrp/npool/nimage =      12
     Subspace diagonalization in iterative solution of the eigenvalue problem:
     a serial algorithm will be used


     Parallelization info
     --------------------
     sticks:   dense  smooth     PW     G-vecs:    dense   smooth      PW
     Min         871     436    120                45892    16224    2348
     Max         873     438    121                45894    16225    2351
     Sum       10465    5239   1449               550715   194689   28193

     Using Slab Decomposition


     Title: 
     volume variation                                                           


     bravais-lattice index     =            8
     lattice parameter (alat)  =      12.6611  a.u.
     unit-cell volume          =    1441.2400 (a.u.)^3
     number of atoms/cell      =           22
     number of atomic types    =            3
     number of electrons       =        48.00
     number of Kohn-Sham states=           24
     kinetic-energy cutoff     =     100.0000  Ry
     charge density cutoff     =     800.0000  Ry
     scf convergence threshold =      1.0E-10
     mixing beta               =       0.7000
     number of iterations used =            8  plain     mixing
     energy convergence thresh.=      1.0E-05
     force convergence thresh. =      1.0E-05
     press convergence thresh. =      5.0E-01
     Exchange-correlation= PBESOL
                           (   1   4  10   8   0   0   0)
     nstep                     =          300


     celldm(1)=  12.661128  celldm(2)=   1.025571  celldm(3)=   0.692394
     celldm(4)=   0.000000  celldm(5)=   0.000000  celldm(6)=   0.000000

     crystal axes: (cart. coord. in units of alat)
               a(1) = (   1.000000   0.000000   0.000000 )  
               a(2) = (   0.000000   1.025571   0.000000 )  
               a(3) = (   0.000000   0.000000   0.692394 )  

     reciprocal axes: (cart. coord. in units 2 pi/alat)
               b(1) = (  1.000000  0.000000  0.000000 )  
               b(2) = (  0.000000  0.975067  0.000000 )  
               b(3) = (  0.000000  0.000000  1.444264 )  


     PseudoPot. # 1 for B  read from file:
     /home/mehlhorn/pseudos/b_pbesol_v1.4.uspp.F.UPF
     MD5 check sum: 369b69bef2c3aeed4453bd8b804fd6a8
     Pseudo is Ultrasoft + core correction, Zval =  3.0
     Generated by new atomic code, or converted to UPF format
     Using radial grid of  781 points,  4 beta functions with: 
                l(1) =   0
                l(2) =   0
                l(3) =   1
                l(4) =   1
     Q(r) pseudized with  8 coefficients,  rinner =    1.100   1.100   1.100


     PseudoPot. # 2 for Ba read from file:
     /home/mehlhorn/pseudos/Ba.nc.z_10.oncvpsp4.dojo.v4-sp.upf
     MD5 check sum: c10ed334bb677c0554edec7181ce9143
     Pseudo is Norm-conserving + core correction, Zval = 10.0
     Generated using ONCVPSP code by D. R. Hamann
     Using radial grid of 1938 points,  8 beta functions with: 
                l(1) =   0
                l(2) =   0
                l(3) =   1
                l(4) =   1
                l(5) =   2
                l(6) =   2
                l(7) =   3
                l(8) =   3

     PseudoPot. # 3 for H  read from file:
     /home/mehlhorn/pseudos/H_ONCV_PBEsol-1.0.upf
     MD5 check sum: 398ef8f67c0a7342c05c87c5e19ea467
     Pseudo is Norm-conserving, Zval =  1.0
     Generated using ONCVPSP code by D. R. Hamann
     Using radial grid of 1180 points,  2 beta functions with: 
                l(1) =   0
                l(2) =   0

     atomic species   valence    mass     pseudopotential
     B                 3.00    10.81100     B ( 1.00)
     Ba               10.00   137.32700     Ba( 1.00)
     H                 1.00     1.00794     H ( 1.00)

      4 Sym. Ops. (no inversion) found ( 2 have fractional translation)



   Cartesian axes

     site n.     atom                  positions (alat units)
         1        Ba     tau(   1) = (   0.5000000   0.5127855   0.3462657  )
         2        Ba     tau(   2) = (   0.0000000   0.0000000   0.6923255  )
         3        B      tau(   3) = (   0.6102570   0.2453190   0.0000455  )
         4        B      tau(   4) = (   0.3897430   0.7802519   0.0000455  )
         5        B      tau(   5) = (   0.1102570   0.2674665   0.3461516  )
         6        B      tau(   6) = (   0.8897430   0.7581045   0.3461516  )
         7        H      tau(   7) = (   0.4340973   0.2996264   0.0001599  )
         8        H      tau(   8) = (   0.5659027   0.7259445   0.0001599  )
         9        H      tau(   9) = (   0.9340973   0.2131590   0.3460372  )
        10        H      tau(  10) = (   0.0659027   0.8124119   0.3460372  )
        11        H      tau(  11) = (   0.7220603   0.3933629  -0.0000058  )
        12        H      tau(  12) = (   0.2779397   0.6322081  -0.0000058  )
        13        H      tau(  13) = (   0.2220603   0.1194226   0.3462029  )
        14        H      tau(  14) = (   0.7779397   0.9061483   0.3462029  )
        15        H      tau(  15) = (   0.6392499   0.1457279   0.5404125  )
        16        H      tau(  16) = (   0.3607501   0.8798430   0.5404125  )
        17        H      tau(  17) = (   0.1392499   0.3670576   0.4981787  )
        18        H      tau(  18) = (   0.8607501   0.6585133   0.4981787  )
        19        H      tau(  19) = (   0.3605328   0.8798946   0.1519977  )
        20        H      tau(  20) = (   0.6394672   0.1456763   0.1519977  )
        21        H      tau(  21) = (   0.8605328   0.6584617   0.1941994  )
        22        H      tau(  22) = (   0.1394672   0.3671092   0.1941994  )

     number of k points=    27
                       cart. coord. in units 2pi/alat
        k(    1) = (   0.0000000   0.0000000   0.0000000), wk =   0.0312500
        k(    2) = (   0.0000000   0.0000000   0.3610660), wk =   0.0625000
        k(    3) = (   0.0000000   0.0000000  -0.7221320), wk =   0.0312500
        k(    4) = (   0.0000000   0.2437667   0.0000000), wk =   0.0625000
        k(    5) = (   0.0000000   0.2437667   0.3610660), wk =   0.1250000
        k(    6) = (   0.0000000   0.2437667  -0.7221320), wk =   0.0625000
        k(    7) = (   0.0000000  -0.4875333   0.0000000), wk =   0.0312500
        k(    8) = (   0.0000000  -0.4875333   0.3610660), wk =   0.0625000
        k(    9) = (   0.0000000  -0.4875333  -0.7221320), wk =   0.0312500
        k(   10) = (   0.2500000   0.0000000   0.0000000), wk =   0.0625000
        k(   11) = (   0.2500000   0.0000000   0.3610660), wk =   0.1250000
        k(   12) = (   0.2500000   0.0000000  -0.7221320), wk =   0.0625000
        k(   13) = (   0.2500000   0.2437667   0.0000000), wk =   0.1250000
        k(   14) = (   0.2500000   0.2437667   0.3610660), wk =   0.2500000
        k(   15) = (   0.2500000   0.2437667  -0.7221320), wk =   0.1250000
        k(   16) = (   0.2500000  -0.4875333   0.0000000), wk =   0.0625000
        k(   17) = (   0.2500000  -0.4875333   0.3610660), wk =   0.1250000
        k(   18) = (   0.2500000  -0.4875333  -0.7221320), wk =   0.0625000
        k(   19) = (  -0.5000000   0.0000000   0.0000000), wk =   0.0312500
        k(   20) = (  -0.5000000   0.0000000   0.3610660), wk =   0.0625000
        k(   21) = (  -0.5000000   0.0000000  -0.7221320), wk =   0.0312500
        k(   22) = (  -0.5000000   0.2437667   0.0000000), wk =   0.0625000
        k(   23) = (  -0.5000000   0.2437667   0.3610660), wk =   0.1250000
        k(   24) = (  -0.5000000   0.2437667  -0.7221320), wk =   0.0625000
        k(   25) = (  -0.5000000  -0.4875333   0.0000000), wk =   0.0312500
        k(   26) = (  -0.5000000  -0.4875333   0.3610660), wk =   0.0625000
        k(   27) = (  -0.5000000  -0.4875333  -0.7221320), wk =   0.0312500

     Dense  grid:   550715 G-vectors     FFT dimensions: ( 120, 120,  80)

     Smooth grid:   194689 G-vectors     FFT dimensions: (  90,  90,  60)

     Estimated max dynamical RAM per process >     149.03 MB

     Estimated total dynamical RAM >       1.75 GB

     Initial potential from superposition of free atoms

     starting charge      47.9682, renormalised to      48.0000
     Starting wfcs are   42 randomized atomic wfcs

     total cpu time spent up to now is        4.5 secs

     Self-consistent Calculation

     iteration #  1     ecut=   100.00 Ry     beta= 0.70
     Davidson diagonalization with overlap
     ethr =  1.00E-02,  avg # of iterations =  2.0

     total cpu time spent up to now is       11.4 secs

     total energy              =    -155.93318446 Ry
     estimated scf accuracy    <       2.06465186 Ry

     iteration #  2     ecut=   100.00 Ry     beta= 0.70
     Davidson diagonalization with overlap
     ethr =  4.30E-03,  avg # of iterations =  2.0

     total cpu time spent up to now is       18.1 secs

     total energy              =    -156.40922619 Ry
     estimated scf accuracy    <       0.36966116 Ry

     iteration #  3     ecut=   100.00 Ry     beta= 0.70
     Davidson diagonalization with overlap
     ethr =  7.70E-04,  avg # of iterations =  2.0

     total cpu time spent up to now is       24.7 secs

     total energy              =    -156.47085975 Ry
     estimated scf accuracy    <       0.00485706 Ry

     iteration #  4     ecut=   100.00 Ry     beta= 0.70
     Davidson diagonalization with overlap
     ethr =  1.01E-05,  avg # of iterations =  5.1

     total cpu time spent up to now is       34.6 secs

     total energy              =    -156.47390611 Ry
     estimated scf accuracy    <       0.00171559 Ry

     iteration #  5     ecut=   100.00 Ry     beta= 0.70
     Davidson diagonalization with overlap
     ethr =  3.57E-06,  avg # of iterations =  3.1

     total cpu time spent up to now is       41.4 secs

     total energy              =    -156.47449762 Ry
     estimated scf accuracy    <       0.00017240 Ry

     iteration #  6     ecut=   100.00 Ry     beta= 0.70
     Davidson diagonalization with overlap
     ethr =  3.59E-07,  avg # of iterations =  4.0

     total cpu time spent up to now is       49.1 secs

     total energy              =    -156.47455988 Ry
     estimated scf accuracy    <       0.00000117 Ry

     iteration #  7     ecut=   100.00 Ry     beta= 0.70
     Davidson diagonalization with overlap
     ethr =  2.45E-09,  avg # of iterations =  9.2

     total cpu time spent up to now is       65.5 secs

     total energy              =    -156.47457000 Ry
     estimated scf accuracy    <       0.00000115 Ry

     iteration #  8     ecut=   100.00 Ry     beta= 0.70
     Davidson diagonalization with overlap
     ethr =  2.39E-09,  avg # of iterations =  2.0

     total cpu time spent up to now is       72.2 secs

     total energy              =    -156.47457024 Ry
     estimated scf accuracy    <       0.00000002 Ry

     iteration #  9     ecut=   100.00 Ry     beta= 0.70
     Davidson diagonalization with overlap
     ethr =  3.27E-11,  avg # of iterations =  5.8

     total cpu time spent up to now is       82.0 secs

     total energy              =    -156.47457025 Ry
     estimated scf accuracy    <          3.0E-09 Ry

     iteration # 10     ecut=   100.00 Ry     beta= 0.70
     Davidson diagonalization with overlap
     ethr =  6.26E-12,  avg # of iterations =  3.1

     total cpu time spent up to now is       89.6 secs

     total energy              =    -156.47457025 Ry
     estimated scf accuracy    <          4.4E-10 Ry

     iteration # 11     ecut=   100.00 Ry     beta= 0.70
     Davidson diagonalization with overlap
     ethr =  9.11E-13,  avg # of iterations =  3.4

     total cpu time spent up to now is       96.7 secs

     End of self-consistent calculation

          k = 0.0000 0.0000 0.0000 ( 24327 PWs)   bands (ev):

   -23.8763 -23.8672  -9.4255  -9.3367  -9.1393  -9.1000  -9.0702  -9.0058
    -6.0128  -5.0522  -4.3682  -4.2181  -1.7187  -0.8000  -0.7357  -0.3804
     0.0004   0.0169   0.0624   0.1872   0.3521   0.7661   0.7835   0.8257

          k = 0.0000 0.0000 0.3611 ( 24350 PWs)   bands (ev):

   -23.8684 -23.8620  -9.3289  -9.3275  -9.3027  -9.2688  -9.1210  -9.0995
    -5.5047  -4.7887  -4.5429  -4.4476  -1.3343  -1.0759  -0.6180  -0.5631
    -0.4166  -0.2976   0.0728   0.3633   0.5616   0.5997   0.6757   0.8259

          k = 0.0000 0.0000-0.7221 ( 24312 PWs)   bands (ev):

   -23.8586 -23.8586  -9.5494  -9.5492  -9.1822  -9.1822  -9.1307  -9.1307
    -4.7833  -4.7828  -4.7011  -4.7006  -1.0950  -1.0945  -1.0814  -1.0798
    -0.0120  -0.0112   0.0619   0.0637   0.6415   0.6415   0.6554   0.6559

          k = 0.0000 0.2438 0.0000 ( 24325 PWs)   bands (ev):

   -23.8750 -23.8685  -9.3959  -9.3056  -9.1940  -9.1361  -9.0606  -9.0150
    -5.8100  -4.9603  -4.6602  -4.3502  -1.3508  -0.9219  -0.8783  -0.0977
    -0.0845  -0.0605   0.2333   0.3554   0.4378   0.4446   0.6777   0.7547

          k = 0.0000 0.2438 0.3611 ( 24349 PWs)   bands (ev):

   -23.8675 -23.8629  -9.3747  -9.3344  -9.2532  -9.2402  -9.1304  -9.1219
    -5.3972  -4.8644  -4.5862  -4.4885  -1.1419  -1.1006  -0.9016  -0.3266
    -0.2816  -0.0864  -0.0739   0.4160   0.4930   0.5408   0.6457   0.7036

          k = 0.0000 0.2438-0.7221 ( 24338 PWs)   bands (ev):

   -23.8586 -23.8586  -9.5633  -9.5632  -9.1633  -9.1633  -9.1298  -9.1298
    -5.0691  -5.0691  -4.4039  -4.4039  -1.2171  -1.2164  -0.9025  -0.9017
     0.0623   0.0625   0.1039   0.1055   0.4665   0.4665   0.6503   0.6506

          k = 0.0000-0.4875 0.0000 ( 24346 PWs)   bands (ev):

   -23.8717 -23.8717  -9.3118  -9.3118  -9.2184  -9.2184  -9.0376  -9.0376
    -5.3025  -5.3025  -4.6423  -4.6423  -1.0449  -1.0449  -0.4061  -0.4061
    -0.1648  -0.1648   0.3506   0.3506   0.4814   0.4814   0.6080   0.6080

          k = 0.0000-0.4875 0.3611 ( 24342 PWs)   bands (ev):

   -23.8652 -23.8652  -9.3738  -9.3738  -9.1959  -9.1959  -9.1610  -9.1610
    -5.1295  -5.1295  -4.5636  -4.5636  -1.0839  -1.0839  -0.6676  -0.6676
    -0.0364  -0.0364   0.2492   0.2492   0.4062   0.4062   0.6214   0.6214

          k = 0.0000-0.4875-0.7221 ( 24380 PWs)   bands (ev):

   -23.8586 -23.8586  -9.5760  -9.5760  -9.1475  -9.1475  -9.1269  -9.1269
    -5.2008  -5.2008  -4.2611  -4.2611  -1.3085  -1.3085  -0.6544  -0.6544
    -0.0141  -0.0141   0.1800   0.1800   0.2709   0.2709   0.6876   0.6876

          k = 0.2500 0.0000 0.0000 ( 24322 PWs)   bands (ev):

   -23.8749 -23.8685  -9.3860  -9.3177  -9.1835  -9.1533  -9.0606  -9.0150
    -5.8186  -5.0846  -4.4090  -4.3764  -1.5250  -0.6572  -0.6461  -0.5096
     0.0400   0.0772   0.1438   0.2110   0.3099   0.3362   0.7308   0.7694

          k = 0.2500 0.0000 0.3611 ( 24348 PWs)   bands (ev):

   -23.8674 -23.8629  -9.3654  -9.3465  -9.2826  -9.2156  -9.1470  -9.1095
    -5.3532  -4.7734  -4.5806  -4.5759  -1.3046  -1.0559  -0.9093  -0.3768
    -0.3587  -0.0841   0.1472   0.2842   0.4228   0.5543   0.7493   0.7763

          k = 0.2500 0.0000-0.7221 ( 24380 PWs)   bands (ev):

   -23.8586 -23.8586  -9.5681  -9.5680  -9.1683  -9.1682  -9.1273  -9.1272
    -4.8649  -4.8645  -4.5880  -4.5877  -1.5696  -1.5691  -0.6334  -0.6330
    -0.0197  -0.0193   0.3133   0.3147   0.4419   0.4419   0.6893   0.6897

          k = 0.2500 0.2438 0.0000 ( 24329 PWs)   bands (ev):

   -23.8740 -23.8695  -9.4144  -9.2928  -9.2371  -9.1068  -9.0536  -9.0214
    -5.6740  -5.0427  -4.6553  -4.4112  -1.2315  -0.8932  -0.6736  -0.2081
    -0.1367  -0.0885   0.2196   0.3652   0.3832   0.4618   0.5352   0.6838

          k = 0.2500 0.2438 0.3611 ( 24335 PWs)   bands (ev):

   -23.8668 -23.8636  -9.3677  -9.3271  -9.3209  -9.1952  -9.1580  -9.1027
    -5.2631  -4.8118  -4.6731  -4.5676  -1.2666  -1.0214  -0.9263  -0.3647
    -0.2018  -0.0238   0.0807   0.3031   0.4029   0.5174   0.6689   0.7546

          k = 0.2500 0.2438-0.7221 ( 24350 PWs)   bands (ev):

   -23.8586 -23.8586  -9.5752  -9.5512  -9.1901  -9.1492  -9.1350  -9.1277
    -5.0790  -4.8952  -4.5498  -4.3609  -1.5455  -1.4637  -0.7037  -0.5972
    -0.0689  -0.0661   0.2833   0.3482   0.4578   0.5012   0.6362   0.6690

          k = 0.2500-0.4875 0.0000 ( 24326 PWs)   bands (ev):

   -23.8717 -23.8717  -9.3887  -9.3887  -9.1422  -9.1422  -9.0372  -9.0372
    -5.3047  -5.3047  -4.6297  -4.6297  -0.9482  -0.9482  -0.4164  -0.4164
    -0.2035  -0.2035   0.2805   0.2805   0.5199   0.5199   0.5421   0.5421

          k = 0.2500-0.4875 0.3611 ( 24326 PWs)   bands (ev):

   -23.8651 -23.8651  -9.3622  -9.3622  -9.2592  -9.2592  -9.1169  -9.1169
    -5.0387  -5.0387  -4.6348  -4.6348  -1.1740  -1.1740  -0.5934  -0.5934
    -0.0586  -0.0586   0.2698   0.2698   0.4153   0.4153   0.6409   0.6409

          k = 0.2500-0.4875-0.7221 ( 24340 PWs)   bands (ev):

   -23.8586 -23.8586  -9.5594  -9.5594  -9.1719  -9.1719  -9.1337  -9.1337
    -5.0900  -5.0900  -4.3421  -4.3421  -1.4320  -1.4320  -0.7143  -0.7143
     0.0474   0.0474   0.1754   0.1754   0.4928   0.4928   0.6566   0.6566

          k =-0.5000 0.0000 0.0000 ( 24312 PWs)   bands (ev):

   -23.8717 -23.8717  -9.2891  -9.2891  -9.2502  -9.2502  -9.0376  -9.0376
    -5.3821  -5.3821  -4.4768  -4.4768  -1.0969  -1.0969  -0.2911  -0.2911
     0.0786   0.0786   0.0978   0.0978   0.1914   0.1914   0.6187   0.6187

          k =-0.5000 0.0000 0.3611 ( 24384 PWs)   bands (ev):

   -23.8651 -23.8651  -9.3776  -9.3776  -9.2184  -9.2184  -9.1462  -9.1462
    -4.9976  -4.9976  -4.6438  -4.6438  -1.2274  -1.2274  -0.6544  -0.6544
    -0.0572  -0.0572   0.1365   0.1365   0.5173   0.5173   0.7356   0.7356

          k =-0.5000 0.0000-0.7221 ( 24376 PWs)   bands (ev):

   -23.8586 -23.8586  -9.5854  -9.5854  -9.1570  -9.1570  -9.1224  -9.1224
    -4.9080  -4.9080  -4.5106  -4.5106  -1.7843  -1.7843  -0.3350  -0.3350
    -0.0249  -0.0249   0.1461   0.1461   0.6307   0.6307   0.6483   0.6483

          k =-0.5000 0.2438 0.0000 ( 24286 PWs)   bands (ev):

   -23.8717 -23.8717  -9.3871  -9.3871  -9.1482  -9.1482  -9.0372  -9.0372
    -5.3481  -5.3481  -4.5434  -4.5434  -0.9872  -0.9872  -0.2973  -0.2973
    -0.1358  -0.1358   0.0574   0.0574   0.4287   0.4287   0.5975   0.5975

          k =-0.5000 0.2438 0.3611 ( 24334 PWs)   bands (ev):

   -23.8651 -23.8651  -9.3648  -9.3648  -9.2636  -9.2636  -9.1157  -9.1157
    -4.9534  -4.9534  -4.6940  -4.6940  -1.2323  -1.2323  -0.6263  -0.6263
    -0.0223  -0.0223   0.1839   0.1839   0.5099   0.5099   0.6657   0.6657

          k =-0.5000 0.2438-0.7221 ( 24372 PWs)   bands (ev):

   -23.8585 -23.8585  -9.5645  -9.5645  -9.1747  -9.1747  -9.1329  -9.1329
    -4.9272  -4.9272  -4.4831  -4.4831  -1.6808  -1.6808  -0.5465  -0.5465
     0.0198   0.0198   0.2190   0.2190   0.5680   0.5680   0.7089   0.7089

          k =-0.5000-0.4875 0.0000 ( 24292 PWs)   bands (ev):

   -23.8717 -23.8717  -9.4336  -9.4336  -9.0977  -9.0977  -9.0368  -9.0368
    -5.3088  -5.3088  -4.6142  -4.6142  -0.8300  -0.8300  -0.4514  -0.4514
    -0.2384  -0.2384   0.2492   0.2492   0.4386   0.4386   0.5546   0.5546

          k =-0.5000-0.4875 0.3611 ( 24356 PWs)   bands (ev):

   -23.8651 -23.8651  -9.3396  -9.3396  -9.3087  -9.3087  -9.0978  -9.0978
    -4.8798  -4.8798  -4.7734  -4.7734  -1.2196  -1.2196  -0.6666  -0.6666
     0.1312   0.1312   0.2725   0.2725   0.4180   0.4180   0.5703   0.5703

          k =-0.5000-0.4875-0.7221 ( 24344 PWs)   bands (ev):

   -23.8585 -23.8585  -9.5407  -9.5407  -9.1987  -9.1987  -9.1399  -9.1399
    -4.9449  -4.9449  -4.4568  -4.4568  -1.5218  -1.5218  -0.8422  -0.8422
     0.2463   0.2463   0.2938   0.2938   0.4393   0.4393   0.6745   0.6745

     highest occupied level (ev):     0.8259

!    total energy              =    -156.47457025 Ry
     estimated scf accuracy    <          4.4E-11 Ry

     The total energy is the sum of the following terms:
     one-electron contribution =     -22.00845340 Ry
     hartree contribution      =      25.39556171 Ry
     xc contribution           =     -49.09414992 Ry
     ewald contribution        =    -110.76752863 Ry

     convergence has been achieved in  11 iterations

     Forces acting on atoms (cartesian axes, Ry/au):

     atom    1 type  2   force =     0.00000000    0.00000000    0.00001273
     atom    2 type  2   force =     0.00000000    0.00000000   -0.00001273
     atom    3 type  1   force =     0.00006296    0.00031175   -0.00001299
     atom    4 type  1   force =    -0.00006296   -0.00031175   -0.00001299
     atom    5 type  1   force =     0.00006296   -0.00031175    0.00001299
     atom    6 type  1   force =    -0.00006296    0.00031175    0.00001299
     atom    7 type  3   force =     0.00266054   -0.00067573   -0.00001725
     atom    8 type  3   force =    -0.00266054    0.00067573   -0.00001725
     atom    9 type  3   force =     0.00266054    0.00067573    0.00001725
     atom   10 type  3   force =    -0.00266054   -0.00067573    0.00001725
     atom   11 type  3   force =    -0.00176263   -0.00212261    0.00000605
     atom   12 type  3   force =     0.00176263    0.00212261    0.00000605
     atom   13 type  3   force =    -0.00176263    0.00212261   -0.00000605
     atom   14 type  3   force =     0.00176263   -0.00212261   -0.00000605
     atom   15 type  3   force =    -0.00030524    0.00155756    0.00237215
     atom   16 type  3   force =     0.00030524   -0.00155756    0.00237215
     atom   17 type  3   force =    -0.00030524   -0.00155756   -0.00237215
     atom   18 type  3   force =     0.00030524    0.00155756   -0.00237215
     atom   19 type  3   force =     0.00035383   -0.00157716   -0.00238107
     atom   20 type  3   force =    -0.00035383    0.00157716   -0.00238107
     atom   21 type  3   force =     0.00035383    0.00157716    0.00238107
     atom   22 type  3   force =    -0.00035383   -0.00157716    0.00238107

     Total force =     0.011257     Total SCF correction =     0.000004


     Computing stress (Cartesian axis) and pressure

          total   stress  (Ry/bohr**3)                   (kbar)     P=       -5.97
  -0.00003778   0.00000000   0.00000000           -5.56        0.00        0.00
   0.00000000  -0.00003859   0.00000000            0.00       -5.68        0.00
   0.00000000   0.00000000  -0.00004543            0.00        0.00       -6.68

     Volume is kept fixed: isostatic pressure set to zero

     BFGS Geometry Optimization
     Energy error            =      0.0E+00 Ry
     Gradient error          =      2.7E-03 Ry/Bohr
     Cell gradient error     =      7.1E-01 kbar

     number of scf cycles    =   1
     number of bfgs steps    =   0

     enthalpy           new  =    -156.4745702536 Ry

     new trust radius        =       0.0028778701 bohr
ibrav =      8
 celldm(1) =     12.66202004
 celldm(2) =      1.02555033
 celldm(3) =      0.69226175
Input lattice vectors:
     1.00007045     0.00000000     0.00000000
     0.00000000     1.02562258     0.00000000
     0.00000000     0.00000000     0.69231052
New lattice vectors in INITIAL alat:
     1.00007045     0.00000000     0.00000000
     0.00000000     1.02562258     0.00000000
     0.00000000     0.00000000     0.69231052
New lattice vectors in NEW alat (for information only):
     1.00000000     0.00000000     0.00000000
     0.00000000     1.02555033     0.00000000
     0.00000000     0.00000000     0.69226175
Discrepancy in bohr =     0.000000    0.000000    0.000000
     new conv_thr            =            1.0E-10 Ry

     new unit-cell volume =   1441.23999 a.u.^3 (   213.56973 Ang^3 )
     density =      2.59710 g/cm^3

CELL_PARAMETERS (alat= 12.66112811)
   1.000070447   0.000000000   0.000000000
   0.000000000   1.025622577   0.000000000
   0.000000000   0.000000000   0.692310517

ATOMIC_POSITIONS (crystal)
Ba               0.5000000000        0.5000000000        0.5001006174
Ba               0.0000000000        0.0000000000        0.9998993826
B                0.6102619890        0.2392263889        0.0000641750
B                0.3897380110        0.7607736111        0.0000641750
B                0.1102619890        0.2607736111        0.4999358250
B                0.8897380110        0.7392263889        0.4999358250
H                0.4343073867        0.2921036890        0.0002289658
H                0.5656926133        0.7078963110        0.0002289658
H                0.9343073867        0.2078963110        0.4997710342
H                0.0656926133        0.7921036890        0.4997710342
H                0.7219210520        0.3833915412       -0.0000076816
H                0.2780789480        0.6166084588       -0.0000076816
H                0.2219210520        0.1166084588        0.5000076816
H                0.7780789480        0.8833915412        0.5000076816
H                0.6392258164        0.1422143465        0.7807690063
H                0.3607741836        0.8577856535        0.7807690063
H                0.1392258164        0.3577856535        0.7192309937
H                0.8607741836        0.6422143465        0.7192309937
H                0.3605607772        0.8578344538        0.2192532373
H                0.6394392228        0.1421655462        0.2192532373
H                0.8605607772        0.6421655462        0.2807467627
H                0.1394392228        0.3578344538        0.2807467627



     Writing config-only to output data dir ./pwscf.save/ :
     XML data file
     NEW-OLD atomic charge density approx. for the potential

     total cpu time spent up to now is      105.2 secs

     Self-consistent Calculation

     iteration #  1     ecut=   100.00 Ry     beta= 0.70
     Davidson diagonalization with overlap
     ethr =  1.00E-06,  avg # of iterations =  2.0

     Threshold (ethr) on eigenvalues was too large:
     Diagonalizing with lowered threshold

     Davidson diagonalization with overlap
     ethr =  4.94E-08,  avg # of iterations =  2.0

     total cpu time spent up to now is      117.4 secs

     total energy              =    -156.47466383 Ry
     estimated scf accuracy    <       0.00003060 Ry

     iteration #  2     ecut=   100.00 Ry     beta= 0.70
     Davidson diagonalization with overlap
     ethr =  6.37E-08,  avg # of iterations =  2.0

     total cpu time spent up to now is      124.0 secs

     total energy              =    -156.47467248 Ry
     estimated scf accuracy    <       0.00000624 Ry

     iteration #  3     ecut=   100.00 Ry     beta= 0.70
     Davidson diagonalization with overlap
     ethr =  1.30E-08,  avg # of iterations =  2.0

     total cpu time spent up to now is      130.6 secs

     total energy              =    -156.47467332 Ry
     estimated scf accuracy    <       0.00000008 Ry

     iteration #  4     ecut=   100.00 Ry     beta= 0.70
     Davidson diagonalization with overlap
     ethr =  1.70E-10,  avg # of iterations =  3.0

     total cpu time spent up to now is      138.9 secs

     total energy              =    -156.47467336 Ry
     estimated scf accuracy    <       0.00000006 Ry

     iteration #  5     ecut=   100.00 Ry     beta= 0.70
     Davidson diagonalization with overlap
     ethr =  1.23E-10,  avg # of iterations =  2.0

     total cpu time spent up to now is      145.5 secs

     total energy              =    -156.47467337 Ry
     estimated scf accuracy    <          2.4E-09 Ry

     iteration #  6     ecut=   100.00 Ry     beta= 0.70
     Davidson diagonalization with overlap
     ethr =  5.06E-12,  avg # of iterations =  3.4

     total cpu time spent up to now is      153.2 secs

     total energy              =    -156.47467337 Ry
     estimated scf accuracy    <          6.1E-10 Ry

     iteration #  7     ecut=   100.00 Ry     beta= 0.70
     Davidson diagonalization with overlap
     ethr =  1.27E-12,  avg # of iterations =  3.9

     total cpu time spent up to now is      160.8 secs

     End of self-consistent calculation

          k = 0.0000 0.0000 0.0000 ( 24327 PWs)   bands (ev):

   -23.8789 -23.8699  -9.4283  -9.3393  -9.1418  -9.1024  -9.0725  -9.0082
    -6.0179  -5.0605  -4.3761  -4.2266  -1.7185  -0.8033  -0.7372  -0.3854
    -0.0038   0.0151   0.0594   0.1831   0.3485   0.7603   0.7777   0.8194

          k = 0.0000 0.0000 0.3611 ( 24350 PWs)   bands (ev):

   -23.8710 -23.8646  -9.3315  -9.3302  -9.3054  -9.2712  -9.1235  -9.1019
    -5.5100  -4.7967  -4.5511  -4.4563  -1.3337  -1.0765  -0.6186  -0.5665
    -0.4196  -0.3008   0.0686   0.3582   0.5562   0.5939   0.6707   0.8200

          k = 0.0000 0.0000-0.7222 ( 24312 PWs)   bands (ev):

   -23.8612 -23.8612  -9.5523  -9.5521  -9.1846  -9.1846  -9.1332  -9.1331
    -4.7900  -4.7896  -4.7098  -4.7093  -1.0951  -1.0946  -1.0814  -1.0798
    -0.0164  -0.0157   0.0577   0.0595   0.6359   0.6359   0.6499   0.6503

          k = 0.0000 0.2438 0.0000 ( 24325 PWs)   bands (ev):

   -23.8776 -23.8712  -9.3986  -9.3081  -9.1965  -9.1386  -9.0629  -9.0174
    -5.8153  -4.9686  -4.6672  -4.3586  -1.3517  -0.9234  -0.8807  -0.1015
    -0.0877  -0.0657   0.2300   0.3515   0.4326   0.4406   0.6719   0.7489

          k = 0.0000 0.2438 0.3611 ( 24349 PWs)   bands (ev):

   -23.8701 -23.8655  -9.3773  -9.3371  -9.2558  -9.2427  -9.1329  -9.1243
    -5.4029  -4.8722  -4.5941  -4.4970  -1.1419  -1.1011  -0.9028  -0.3292
    -0.2849  -0.0910  -0.0774   0.4109   0.4878   0.5353   0.6404   0.6981

          k = 0.0000 0.2438-0.7222 ( 24338 PWs)   bands (ev):

   -23.8612 -23.8612  -9.5662  -9.5661  -9.1657  -9.1657  -9.1323  -9.1323
    -5.0768  -5.0768  -4.4116  -4.4116  -1.2171  -1.2164  -0.9027  -0.9020
     0.0578   0.0580   0.0995   0.1010   0.4614   0.4614   0.6446   0.6449

          k = 0.0000-0.4875 0.0000 ( 24346 PWs)   bands (ev):

   -23.8744 -23.8744  -9.3145  -9.3145  -9.2209  -9.2209  -9.0400  -9.0400
    -5.3085  -5.3085  -4.6505  -4.6505  -1.0462  -1.0462  -0.4094  -0.4094
    -0.1681  -0.1681   0.3450   0.3450   0.4773   0.4773   0.6030   0.6030

          k = 0.0000-0.4875 0.3611 ( 24342 PWs)   bands (ev):

   -23.8678 -23.8678  -9.3764  -9.3764  -9.1985  -9.1985  -9.1633  -9.1633
    -5.1362  -5.1362  -4.5717  -4.5717  -1.0843  -1.0843  -0.6696  -0.6696
    -0.0405  -0.0405   0.2451   0.2451   0.4007   0.4007   0.6160   0.6160

          k = 0.0000-0.4875-0.7222 ( 24380 PWs)   bands (ev):

   -23.8612 -23.8612  -9.5789  -9.5789  -9.1499  -9.1499  -9.1293  -9.1293
    -5.2086  -5.2086  -4.2687  -4.2687  -1.3085  -1.3085  -0.6548  -0.6548
    -0.0189  -0.0189   0.1759   0.1759   0.2658   0.2658   0.6819   0.6819

          k = 0.2500 0.0000 0.0000 ( 24322 PWs)   bands (ev):

   -23.8776 -23.8712  -9.3887  -9.3203  -9.1861  -9.1558  -9.0629  -9.0174
    -5.8240  -5.0924  -4.4170  -4.3845  -1.5251  -0.6597  -0.6481  -0.5134
     0.0367   0.0734   0.1402   0.2068   0.3059   0.3313   0.7249   0.7631

          k = 0.2500 0.0000 0.3611 ( 24348 PWs)   bands (ev):

   -23.8701 -23.8655  -9.3680  -9.3492  -9.2851  -9.2182  -9.1494  -9.1119
    -5.3588  -4.7811  -4.5889  -4.5842  -1.3040  -1.0572  -0.9095  -0.3799
    -0.3624  -0.0877   0.1424   0.2795   0.4178   0.5492   0.7434   0.7708

          k = 0.2500 0.0000-0.7222 ( 24380 PWs)   bands (ev):

   -23.8612 -23.8612  -9.5710  -9.5709  -9.1706  -9.1706  -9.1297  -9.1297
    -4.8730  -4.8726  -4.5954  -4.5951  -1.5689  -1.5684  -0.6344  -0.6340
    -0.0241  -0.0237   0.3087   0.3102   0.4368   0.4369   0.6836   0.6840

          k = 0.2500 0.2438 0.0000 ( 24329 PWs)   bands (ev):

   -23.8766 -23.8721  -9.4171  -9.2955  -9.2395  -9.1092  -9.0560  -9.0238
    -5.6797  -5.0504  -4.6627  -4.4191  -1.2327  -0.8951  -0.6763  -0.2115
    -0.1399  -0.0918   0.2148   0.3612   0.3782   0.4576   0.5296   0.6784

          k = 0.2500 0.2438 0.3611 ( 24335 PWs)   bands (ev):

   -23.8694 -23.8662  -9.3704  -9.3297  -9.3234  -9.1979  -9.1604  -9.1051
    -5.2691  -4.8197  -4.6807  -4.5759  -1.2663  -1.0217  -0.9278  -0.3679
    -0.2053  -0.0277   0.0762   0.2986   0.3978   0.5120   0.6634   0.7491

          k = 0.2500 0.2438-0.7222 ( 24350 PWs)   bands (ev):

   -23.8612 -23.8612  -9.5781  -9.5540  -9.1925  -9.1516  -9.1374  -9.1302
    -5.0870  -4.9031  -4.5575  -4.3684  -1.5448  -1.4630  -0.7050  -0.5981
    -0.0732  -0.0704   0.2790   0.3435   0.4525   0.4959   0.6308   0.6630

          k = 0.2500-0.4875 0.0000 ( 24326 PWs)   bands (ev):

   -23.8743 -23.8743  -9.3913  -9.3913  -9.1446  -9.1446  -9.0396  -9.0396
    -5.3112  -5.3112  -4.6373  -4.6373  -0.9502  -0.9502  -0.4197  -0.4197
    -0.2067  -0.2067   0.2759   0.2759   0.5156   0.5156   0.5367   0.5367

          k = 0.2500-0.4875 0.3611 ( 24326 PWs)   bands (ev):

   -23.8678 -23.8678  -9.3648  -9.3648  -9.2618  -9.2618  -9.1194  -9.1194
    -5.0456  -5.0456  -4.6427  -4.6427  -1.1742  -1.1742  -0.5960  -0.5960
    -0.0624  -0.0624   0.2652   0.2652   0.4102   0.4102   0.6355   0.6355

          k = 0.2500-0.4875-0.7222 ( 24340 PWs)   bands (ev):

   -23.8612 -23.8612  -9.5623  -9.5623  -9.1743  -9.1743  -9.1361  -9.1361
    -5.0979  -5.0979  -4.3497  -4.3497  -1.4313  -1.4313  -0.7155  -0.7155
     0.0428   0.0428   0.1713   0.1713   0.4874   0.4874   0.6510   0.6510

          k =-0.5000 0.0000 0.0000 ( 24312 PWs)   bands (ev):

   -23.8743 -23.8743  -9.2918  -9.2918  -9.2525  -9.2525  -9.0400  -9.0400
    -5.3884  -5.3884  -4.4850  -4.4850  -1.0977  -1.0977  -0.2942  -0.2942
     0.0757   0.0757   0.0928   0.0928   0.1870   0.1870   0.6128   0.6128

          k =-0.5000 0.0000 0.3611 ( 24384 PWs)   bands (ev):

   -23.8678 -23.8678  -9.3803  -9.3803  -9.2210  -9.2210  -9.1486  -9.1486
    -5.0041  -5.0041  -4.6522  -4.6522  -1.2271  -1.2271  -0.6567  -0.6567
    -0.0615  -0.0615   0.1319   0.1319   0.5123   0.5123   0.7298   0.7298

          k =-0.5000 0.0000-0.7222 ( 24376 PWs)   bands (ev):

   -23.8612 -23.8612  -9.5883  -9.5883  -9.1593  -9.1593  -9.1249  -9.1249
    -4.9165  -4.9165  -4.5178  -4.5178  -1.7832  -1.7832  -0.3364  -0.3364
    -0.0293  -0.0293   0.1415   0.1415   0.6258   0.6258   0.6424   0.6424

          k =-0.5000 0.2438 0.0000 ( 24286 PWs)   bands (ev):

   -23.8743 -23.8743  -9.3897  -9.3897  -9.1506  -9.1506  -9.0396  -9.0396
    -5.3547  -5.3547  -4.5511  -4.5511  -0.9890  -0.9890  -0.3005  -0.3005
    -0.1390  -0.1390   0.0530   0.0530   0.4244   0.4244   0.5918   0.5918

          k =-0.5000 0.2438 0.3611 ( 24334 PWs)   bands (ev):

   -23.8677 -23.8677  -9.3674  -9.3674  -9.2662  -9.2662  -9.1182  -9.1182
    -4.9602  -4.9602  -4.7020  -4.7020  -1.2322  -1.2322  -0.6288  -0.6288
    -0.0264  -0.0264   0.1794   0.1794   0.5048   0.5048   0.6603   0.6603

          k =-0.5000 0.2438-0.7222 ( 24372 PWs)   bands (ev):

   -23.8612 -23.8612  -9.5674  -9.5674  -9.1770  -9.1770  -9.1353  -9.1353
    -4.9354  -4.9354  -4.4906  -4.4906  -1.6797  -1.6797  -0.5481  -0.5481
     0.0157   0.0157   0.2142   0.2142   0.5627   0.5627   0.7032   0.7032

          k =-0.5000-0.4875 0.0000 ( 24292 PWs)   bands (ev):

   -23.8743 -23.8743  -9.4362  -9.4362  -9.1002  -9.1002  -9.0392  -9.0392
    -5.3157  -5.3157  -4.6213  -4.6213  -0.8333  -0.8333  -0.4536  -0.4536
    -0.2415  -0.2415   0.2446   0.2446   0.4336   0.4336   0.5501   0.5501

          k =-0.5000-0.4875 0.3611 ( 24356 PWs)   bands (ev):

   -23.8677 -23.8677  -9.3421  -9.3421  -9.3113  -9.3113  -9.1002  -9.1002
    -4.8869  -4.8869  -4.7809  -4.7809  -1.2196  -1.2196  -0.6693  -0.6693
     0.1272   0.1272   0.2672   0.2672   0.4130   0.4130   0.5656   0.5656

          k =-0.5000-0.4875-0.7222 ( 24344 PWs)   bands (ev):

   -23.8611 -23.8611  -9.5436  -9.5436  -9.2011  -9.2011  -9.1423  -9.1423
    -4.9530  -4.9530  -4.4644  -4.4644  -1.5208  -1.5208  -0.8436  -0.8436
     0.2415   0.2415   0.2886   0.2886   0.4346   0.4346   0.6692   0.6692

     highest occupied level (ev):     0.8200

!    total energy              =    -156.47467337 Ry
     estimated scf accuracy    <          9.8E-12 Ry

     The total energy is the sum of the following terms:
     one-electron contribution =     -22.09250980 Ry
     hartree contribution      =      25.43738631 Ry
     xc contribution           =     -49.10461048 Ry
     ewald contribution        =    -110.71493940 Ry

     convergence has been achieved in   7 iterations

     Forces acting on atoms (cartesian axes, Ry/au):

     atom    1 type  2   force =     0.00000000    0.00000000    0.00001054
     atom    2 type  2   force =     0.00000000    0.00000000   -0.00001054
     atom    3 type  1   force =     0.00008179    0.00034467   -0.00001121
     atom    4 type  1   force =    -0.00008179   -0.00034467   -0.00001121
     atom    5 type  1   force =     0.00008179   -0.00034467    0.00001121
     atom    6 type  1   force =    -0.00008179    0.00034467    0.00001121
     atom    7 type  3   force =     0.00166901   -0.00038026   -0.00001744
     atom    8 type  3   force =    -0.00166901    0.00038026   -0.00001744
     atom    9 type  3   force =     0.00166901    0.00038026    0.00001744
     atom   10 type  3   force =    -0.00166901   -0.00038026    0.00001744
     atom   11 type  3   force =    -0.00110721   -0.00124390    0.00000504
     atom   12 type  3   force =     0.00110721    0.00124390    0.00000504
     atom   13 type  3   force =    -0.00110721    0.00124390   -0.00000504
     atom   14 type  3   force =     0.00110721   -0.00124390   -0.00000504
     atom   15 type  3   force =    -0.00013336    0.00096492    0.00141516
     atom   16 type  3   force =     0.00013336   -0.00096492    0.00141516
     atom   17 type  3   force =    -0.00013336   -0.00096492   -0.00141516
     atom   18 type  3   force =     0.00013336    0.00096492   -0.00141516
     atom   19 type  3   force =     0.00017848   -0.00098210   -0.00142354
     atom   20 type  3   force =    -0.00017848    0.00098210   -0.00142354
     atom   21 type  3   force =     0.00017848    0.00098210    0.00142354
     atom   22 type  3   force =    -0.00017848   -0.00098210    0.00142354

     Total force =     0.006871     Total SCF correction =     0.000002


     Computing stress (Cartesian axis) and pressure

          total   stress  (Ry/bohr**3)                   (kbar)     P=       -4.66
  -0.00002961   0.00000000   0.00000000           -4.36        0.00        0.00
   0.00000000  -0.00003001   0.00000000            0.00       -4.41        0.00
   0.00000000   0.00000000  -0.00003547            0.00        0.00       -5.22

     Volume is kept fixed: isostatic pressure set to zero
     Energy error            =      1.0E-04 Ry
     Gradient error          =      1.7E-03 Ry/Bohr
     Cell gradient error     =      5.6E-01 kbar

     number of scf cycles    =   2
     number of bfgs steps    =   1

     enthalpy           old  =    -156.4745702536 Ry
     enthalpy           new  =    -156.4746733724 Ry

     CASE: enthalpy          _new < enthalpy          _old

     new trust radius        =       0.0043165181 bohr
ibrav =      8
 celldm(1) =     12.66366003
 celldm(2) =      1.02552466
 celldm(3) =      0.69201016
Input lattice vectors:
     1.00019998     0.00000000     0.00000000
     0.00000000     1.02572974     0.00000000
     0.00000000     0.00000000     0.69214854
New lattice vectors in INITIAL alat:
     1.00019998     0.00000000     0.00000000
     0.00000000     1.02572974     0.00000000
     0.00000000     0.00000000     0.69214854
New lattice vectors in NEW alat (for information only):
     1.00000000     0.00000000     0.00000000
     0.00000000     1.02552466     0.00000000
     0.00000000     0.00000000     0.69201016
Discrepancy in bohr =     0.000000    0.000000    0.000000
     new conv_thr            =            1.0E-11 Ry

     new unit-cell volume =   1441.23999 a.u.^3 (   213.56973 Ang^3 )
     density =      2.59710 g/cm^3

CELL_PARAMETERS (alat= 12.66112811)
   1.000199976   0.000000000   0.000000000
   0.000000000   1.025729737   0.000000000
   0.000000000   0.000000000   0.692148543

ATOMIC_POSITIONS (crystal)
Ba               0.5000000000        0.5000000000        0.5001035981
Ba               0.0000000000        0.0000000000        0.9998964019
B                0.6102779761        0.2392921106        0.0000610062
B                0.3897220239        0.7607078894        0.0000610062
B                0.1102779761        0.2607078894        0.4999389938
B                0.8897220239        0.7392921106        0.4999389938
H                0.4346346494        0.2920309356        0.0002240406
H                0.5653653506        0.7079690644        0.0002240406
H                0.9346346494        0.2079690644        0.4997759594
H                0.0653653506        0.7920309356        0.4997759594
H                0.7217039506        0.3831536169       -0.0000062567
H                0.2782960494        0.6168463831       -0.0000062567
H                0.2217039506        0.1168463831        0.5000062567
H                0.7782960494        0.8831536169        0.5000062567
H                0.6391995958        0.1423988425        0.7811698228
H                0.3608004042        0.8576011575        0.7811698228
H                0.1391995958        0.3576011575        0.7188301772
H                0.8608004042        0.6423988425        0.7188301772
H                0.3605958274        0.8576466786        0.2188500530
H                0.6394041726        0.1423533214        0.2188500530
H                0.8605958274        0.6423533214        0.2811499470
H                0.1394041726        0.3576466786        0.2811499470



     Writing config-only to output data dir ./pwscf.save/ :
     XML data file
     NEW-OLD atomic charge density approx. for the potential

     total cpu time spent up to now is      169.2 secs

     Self-consistent Calculation

     iteration #  1     ecut=   100.00 Ry     beta= 0.70
     Davidson diagonalization with overlap
     ethr =  1.00E-06,  avg # of iterations =  2.9

     total cpu time spent up to now is      176.2 secs

     total energy              =    -156.47471821 Ry
     estimated scf accuracy    <       0.00005971 Ry

     iteration #  2     ecut=   100.00 Ry     beta= 0.70
     Davidson diagonalization with overlap
     ethr =  1.24E-07,  avg # of iterations =  2.0

     total cpu time spent up to now is      182.8 secs

     total energy              =    -156.47473447 Ry
     estimated scf accuracy    <       0.00000703 Ry

     iteration #  3     ecut=   100.00 Ry     beta= 0.70
     Davidson diagonalization with overlap
     ethr =  1.46E-08,  avg # of iterations =  2.0

     total cpu time spent up to now is      189.4 secs

     total energy              =    -156.47473542 Ry
     estimated scf accuracy    <       0.00000012 Ry

     iteration #  4     ecut=   100.00 Ry     beta= 0.70
     Davidson diagonalization with overlap
     ethr =  2.59E-10,  avg # of iterations =  3.1

     total cpu time spent up to now is      197.4 secs

     total energy              =    -156.47473546 Ry
     estimated scf accuracy    <       0.00000009 Ry

     iteration #  5     ecut=   100.00 Ry     beta= 0.70
     Davidson diagonalization with overlap
     ethr =  1.83E-10,  avg # of iterations =  2.0

     total cpu time spent up to now is      204.0 secs

     total energy              =    -156.47473548 Ry
     estimated scf accuracy    <          2.9E-09 Ry

     iteration #  6     ecut=   100.00 Ry     beta= 0.70
     Davidson diagonalization with overlap
     ethr =  6.03E-12,  avg # of iterations =  5.0

     total cpu time spent up to now is      213.0 secs

     total energy              =    -156.47473548 Ry
     estimated scf accuracy    <          1.4E-10 Ry

     iteration #  7     ecut=   100.00 Ry     beta= 0.70
     Davidson diagonalization with overlap
     ethr =  2.98E-13,  avg # of iterations =  4.7

     total cpu time spent up to now is      221.3 secs

     End of self-consistent calculation

          k = 0.0000 0.0000 0.0000 ( 24327 PWs)   bands (ev):

   -23.8827 -23.8737  -9.4323  -9.3430  -9.1455  -9.1060  -9.0760  -9.0118
    -6.0257  -5.0732  -4.3881  -4.2394  -1.7187  -0.8086  -0.7399  -0.3933
    -0.0095   0.0114   0.0559   0.1775   0.3440   0.7513   0.7681   0.8091

          k = 0.0000 0.0000 0.3612 ( 24350 PWs)   bands (ev):

   -23.8748 -23.8684  -9.3353  -9.3343  -9.3095  -9.2749  -9.1271  -9.1054
    -5.5180  -4.8086  -4.5638  -4.4696  -1.3331  -1.0777  -0.6199  -0.5720
    -0.4238  -0.3052   0.0623   0.3506   0.5474   0.5851   0.6632   0.8107

          k = 0.0000 0.0000-0.7224 ( 24312 PWs)   bands (ev):

   -23.8650 -23.8650  -9.5569  -9.5567  -9.1881  -9.1880  -9.1367  -9.1367
    -4.8000  -4.7995  -4.7233  -4.7228  -1.0948  -1.0943  -1.0815  -1.0800
    -0.0237  -0.0230   0.0513   0.0531   0.6272   0.6272   0.6414   0.6418

          k = 0.0000 0.2437 0.0000 ( 24325 PWs)   bands (ev):

   -23.8814 -23.8750  -9.4026  -9.3119  -9.2002  -9.1421  -9.0664  -9.0210
    -5.8234  -4.9814  -4.6777  -4.3714  -1.3534  -0.9260  -0.8849  -0.1063
    -0.0918  -0.0739   0.2240   0.3463   0.4241   0.4355   0.6630   0.7395

          k = 0.0000 0.2437 0.3612 ( 24349 PWs)   bands (ev):

   -23.8739 -23.8694  -9.3813  -9.3412  -9.2598  -9.2463  -9.1366  -9.1278
    -5.4115  -4.8838  -4.6062  -4.5099  -1.1421  -1.1020  -0.9050  -0.3327
    -0.2897  -0.0981  -0.0826   0.4033   0.4795   0.5267   0.6324   0.6894

          k = 0.0000 0.2437-0.7224 ( 24338 PWs)   bands (ev):

   -23.8650 -23.8650  -9.5707  -9.5706  -9.1691  -9.1691  -9.1359  -9.1359
    -5.0884  -5.0884  -4.4234  -4.4233  -1.2173  -1.2166  -0.9028  -0.9021
     0.0506   0.0508   0.0927   0.0943   0.4537   0.4537   0.6356   0.6359

          k = 0.0000-0.4875 0.0000 ( 24346 PWs)   bands (ev):

   -23.8782 -23.8782  -9.3186  -9.3186  -9.2244  -9.2244  -9.0434  -9.0434
    -5.3177  -5.3177  -4.6629  -4.6629  -1.0485  -1.0485  -0.4150  -0.4150
    -0.1724  -0.1724   0.3360   0.3360   0.4719   0.4719   0.5947   0.5947

          k = 0.0000-0.4875 0.3612 ( 24342 PWs)   bands (ev):

   -23.8716 -23.8716  -9.3804  -9.3804  -9.2025  -9.2025  -9.1668  -9.1668
    -5.1462  -5.1462  -4.5840  -4.5840  -1.0852  -1.0852  -0.6725  -0.6725
    -0.0465  -0.0465   0.2390   0.2390   0.3917   0.3917   0.6078   0.6078

          k = 0.0000-0.4875-0.7224 ( 24380 PWs)   bands (ev):

   -23.8650 -23.8650  -9.5834  -9.5834  -9.1533  -9.1533  -9.1330  -9.1330
    -5.2203  -5.2203  -4.2803  -4.2803  -1.3086  -1.3086  -0.6549  -0.6549
    -0.0265  -0.0265   0.1694   0.1694   0.2580   0.2580   0.6727   0.6727

          k = 0.2500 0.0000 0.0000 ( 24322 PWs)   bands (ev):

   -23.8814 -23.8750  -9.3928  -9.3240  -9.1898  -9.1593  -9.0664  -9.0210
    -5.8323  -5.1043  -4.4292  -4.3969  -1.5257  -0.6639  -0.6514  -0.5196
     0.0324   0.0684   0.1356   0.1997   0.3008   0.3237   0.7154   0.7528

          k = 0.2500 0.0000 0.3612 ( 24348 PWs)   bands (ev):

   -23.8739 -23.8693  -9.3720  -9.3532  -9.2890  -9.2219  -9.1530  -9.1155
    -5.3673  -4.7928  -4.6017  -4.5968  -1.3030  -1.0592  -0.9099  -0.3845
    -0.3684  -0.0929   0.1353   0.2721   0.4104   0.5414   0.7340   0.7623

          k = 0.2500 0.0000-0.7224 ( 24380 PWs)   bands (ev):

   -23.8650 -23.8650  -9.5755  -9.5754  -9.1741  -9.1740  -9.1333  -9.1333
    -4.8854  -4.8851  -4.6066  -4.6062  -1.5677  -1.5672  -0.6357  -0.6354
    -0.0313  -0.0310   0.3017   0.3032   0.4292   0.4292   0.6747   0.6751

          k = 0.2500 0.2437 0.0000 ( 24329 PWs)   bands (ev):

   -23.8804 -23.8759  -9.4210  -9.2994  -9.2431  -9.1129  -9.0594  -9.0273
    -5.6884  -5.0622  -4.6739  -4.4311  -1.2349  -0.8983  -0.6810  -0.2171
    -0.1441  -0.0961   0.2069   0.3559   0.3700   0.4521   0.5205   0.6696

          k = 0.2500 0.2437 0.3612 ( 24335 PWs)   bands (ev):

   -23.8732 -23.8700  -9.3744  -9.3338  -9.3271  -9.2018  -9.1639  -9.1087
    -5.2781  -4.8315  -4.6923  -4.5886  -1.2660  -1.0222  -0.9303  -0.3728
    -0.2108  -0.0333   0.0694   0.2916   0.3898   0.5038   0.6550   0.7406

          k = 0.2500 0.2437-0.7224 ( 24350 PWs)   bands (ev):

   -23.8650 -23.8650  -9.5826  -9.5585  -9.1959  -9.1550  -9.1410  -9.1338
    -5.0991  -4.9150  -4.5691  -4.3798  -1.5438  -1.4619  -0.7067  -0.5993
    -0.0801  -0.0775   0.2727   0.3365   0.4438   0.4878   0.6229   0.6534

          k = 0.2500-0.4875 0.0000 ( 24326 PWs)   bands (ev):

   -23.8782 -23.8782  -9.3951  -9.3951  -9.1483  -9.1483  -9.0431  -9.0431
    -5.3212  -5.3212  -4.6487  -4.6487  -0.9535  -0.9535  -0.4253  -0.4253
    -0.2107  -0.2107   0.2684   0.2684   0.5099   0.5099   0.5279   0.5279

          k = 0.2500-0.4875 0.3612 ( 24326 PWs)   bands (ev):

   -23.8716 -23.8716  -9.3688  -9.3688  -9.2656  -9.2656  -9.1230  -9.1230
    -5.0559  -5.0559  -4.6547  -4.6547  -1.1745  -1.1745  -0.5999  -0.5999
    -0.0680  -0.0680   0.2582   0.2582   0.4021   0.4021   0.6273   0.6273

          k = 0.2500-0.4875-0.7224 ( 24340 PWs)   bands (ev):

   -23.8650 -23.8650  -9.5668  -9.5668  -9.1777  -9.1777  -9.1397  -9.1397
    -5.1098  -5.1098  -4.3613  -4.3613  -1.4304  -1.4304  -0.7171  -0.7171
     0.0356   0.0356   0.1648   0.1648   0.4793   0.4793   0.6420   0.6420

          k =-0.4999 0.0000 0.0000 ( 24312 PWs)   bands (ev):

   -23.8782 -23.8782  -9.2959  -9.2959  -9.2560  -9.2560  -9.0435  -9.0435
    -5.3981  -5.3981  -4.4974  -4.4974  -1.0994  -1.0994  -0.2992  -0.2992
     0.0721   0.0721   0.0847   0.0847   0.1810   0.1810   0.6030   0.6030

          k =-0.4999 0.0000 0.3612 ( 24384 PWs)   bands (ev):

   -23.8716 -23.8716  -9.3843  -9.3843  -9.2248  -9.2248  -9.1521  -9.1521
    -5.0139  -5.0139  -4.6649  -4.6649  -1.2267  -1.2267  -0.6602  -0.6602
    -0.0680  -0.0680   0.1251   0.1251   0.5050   0.5050   0.7207   0.7207

          k =-0.4999 0.0000-0.7224 ( 24376 PWs)   bands (ev):

   -23.8650 -23.8650  -9.5928  -9.5928  -9.1627  -9.1627  -9.1284  -9.1284
    -4.9295  -4.9295  -4.5285  -4.5285  -1.7816  -1.7816  -0.3383  -0.3383
    -0.0365  -0.0365   0.1345   0.1345   0.6184   0.6184   0.6329   0.6329

          k =-0.4999 0.2437 0.0000 ( 24286 PWs)   bands (ev):

   -23.8782 -23.8782  -9.3936  -9.3936  -9.1543  -9.1543  -9.0431  -9.0431
    -5.3649  -5.3649  -4.5626  -4.5626  -0.9920  -0.9920  -0.3056  -0.3056
    -0.1429  -0.1429   0.0458   0.0458   0.4188   0.4188   0.5825   0.5825

          k =-0.4999 0.2437 0.3612 ( 24334 PWs)   bands (ev):

   -23.8716 -23.8716  -9.3713  -9.3713  -9.2701  -9.2701  -9.1218  -9.1218
    -4.9704  -4.9704  -4.7143  -4.7143  -1.2320  -1.2320  -0.6326  -0.6326
    -0.0330  -0.0330   0.1728   0.1728   0.4971   0.4971   0.6518   0.6518

          k =-0.4999 0.2437-0.7224 ( 24372 PWs)   bands (ev):

   -23.8650 -23.8650  -9.5719  -9.5719  -9.1804  -9.1804  -9.1389  -9.1389
    -4.9480  -4.9480  -4.5017  -4.5017  -1.6782  -1.6782  -0.5502  -0.5502
     0.0088   0.0088   0.2071   0.2071   0.5544   0.5544   0.6946   0.6946

          k =-0.4999-0.4875 0.0000 ( 24292 PWs)   bands (ev):

   -23.8781 -23.8781  -9.4401  -9.4401  -9.1038  -9.1038  -9.0427  -9.0427
    -5.3265  -5.3265  -4.6318  -4.6318  -0.8385  -0.8385  -0.4576  -0.4576
    -0.2453  -0.2453   0.2367   0.2367   0.4259   0.4259   0.5442   0.5442

          k =-0.4999-0.4875 0.3612 ( 24356 PWs)   bands (ev):

   -23.8715 -23.8715  -9.3457  -9.3457  -9.3155  -9.3155  -9.1038  -9.1038
    -4.8978  -4.8978  -4.7924  -4.7924  -1.2197  -1.2197  -0.6733  -0.6733
     0.1211   0.1211   0.2591   0.2591   0.4051   0.4051   0.5587   0.5587

          k =-0.4999-0.4875-0.7224 ( 24344 PWs)   bands (ev):

   -23.8649 -23.8649  -9.5482  -9.5482  -9.2045  -9.2045  -9.1459  -9.1459
    -4.9652  -4.9652  -4.4759  -4.4759  -1.5193  -1.5193  -0.8455  -0.8455
     0.2345   0.2345   0.2803   0.2803   0.4265   0.4265   0.6613   0.6613

     highest occupied level (ev):     0.8107

!    total energy              =    -156.47473548 Ry
     estimated scf accuracy    <          7.1E-12 Ry

     The total energy is the sum of the following terms:
     one-electron contribution =     -22.22361001 Ry
     hartree contribution      =      25.50266931 Ry
     xc contribution           =     -49.12052933 Ry
     ewald contribution        =    -110.63326545 Ry

     convergence has been achieved in   7 iterations

     Forces acting on atoms (cartesian axes, Ry/au):

     atom    1 type  2   force =     0.00000000    0.00000000    0.00000585
     atom    2 type  2   force =     0.00000000    0.00000000   -0.00000585
     atom    3 type  1   force =     0.00009532    0.00020090   -0.00000874
     atom    4 type  1   force =    -0.00009532   -0.00020090   -0.00000874
     atom    5 type  1   force =     0.00009532   -0.00020090    0.00000874
     atom    6 type  1   force =    -0.00009532    0.00020090    0.00000874
     atom    7 type  3   force =     0.00014615    0.00007681   -0.00001815
     atom    8 type  3   force =    -0.00014615   -0.00007681   -0.00001815
     atom    9 type  3   force =     0.00014615   -0.00007681    0.00001815
     atom   10 type  3   force =    -0.00014615    0.00007681    0.00001815
     atom   11 type  3   force =    -0.00005491    0.00016200    0.00000322
     atom   12 type  3   force =     0.00005491   -0.00016200    0.00000322
     atom   13 type  3   force =    -0.00005491   -0.00016200   -0.00000322
     atom   14 type  3   force =     0.00005491    0.00016200   -0.00000322
     atom   15 type  3   force =     0.00011702    0.00011603   -0.00000022
     atom   16 type  3   force =    -0.00011702   -0.00011603   -0.00000022
     atom   17 type  3   force =     0.00011702   -0.00011603    0.00000022
     atom   18 type  3   force =    -0.00011702    0.00011603    0.00000022
     atom   19 type  3   force =    -0.00007864   -0.00012774   -0.00000563
     atom   20 type  3   force =     0.00007864    0.00012774   -0.00000563
     atom   21 type  3   force =    -0.00007864    0.00012774    0.00000563
     atom   22 type  3   force =     0.00007864   -0.00012774    0.00000563

     Total force =     0.000790     Total SCF correction =     0.000001


     Computing stress (Cartesian axis) and pressure

          total   stress  (Ry/bohr**3)                   (kbar)     P=       -2.66
  -0.00001689   0.00000000   0.00000000           -2.48        0.00        0.00
   0.00000000  -0.00001692   0.00000000            0.00       -2.49        0.00
   0.00000000   0.00000000  -0.00002047            0.00        0.00       -3.01

     Volume is kept fixed: isostatic pressure set to zero
     Energy error            =      6.2E-05 Ry
     Gradient error          =      2.0E-04 Ry/Bohr
     Cell gradient error     =      3.5E-01 kbar

     number of scf cycles    =   3
     number of bfgs steps    =   2

     enthalpy           old  =    -156.4746733724 Ry
     enthalpy           new  =    -156.4747354830 Ry

     CASE: enthalpy          _new < enthalpy          _old

     new trust radius        =       0.0005277705 bohr
ibrav =      8
 celldm(1) =     12.66411060
 celldm(2) =      1.02552295
 celldm(3) =      0.69193745
Input lattice vectors:
     1.00023556     0.00000000     0.00000000
     0.00000000     1.02576452     0.00000000
     0.00000000     0.00000000     0.69210045
New lattice vectors in INITIAL alat:
     1.00023556     0.00000000     0.00000000
     0.00000000     1.02576452     0.00000000
     0.00000000     0.00000000     0.69210045
New lattice vectors in NEW alat (for information only):
     1.00000000     0.00000000     0.00000000
     0.00000000     1.02552295     0.00000000
     0.00000000     0.00000000     0.69193745
Discrepancy in bohr =     0.000000    0.000000    0.000000
     new conv_thr            =            6.2E-12 Ry

     new unit-cell volume =   1441.23999 a.u.^3 (   213.56973 Ang^3 )
     density =      2.59710 g/cm^3

CELL_PARAMETERS (alat= 12.66112811)
   1.000235563   0.000000000   0.000000000
   0.000000000   1.025764521   0.000000000
   0.000000000   0.000000000   0.692100447

ATOMIC_POSITIONS (crystal)
Ba               0.5000000000        0.5000000000        0.5001043877
Ba               0.0000000000        0.0000000000        0.9998956123
B                0.6102863100        0.2393102604        0.0000598677
B                0.3897136900        0.7606897396        0.0000598677
B                0.1102863100        0.2606897396        0.4999401323
B                0.8897136900        0.7393102604        0.4999401323
H                0.4346574532        0.2920346666        0.0002217300
H                0.5653425468        0.7079653334        0.0002217300
H                0.9346574532        0.2079653334        0.4997782700
H                0.0653425468        0.7920346666        0.4997782700
H                0.7216922861        0.3831587108       -0.0000058283
H                0.2783077139        0.6168412892       -0.0000058283
H                0.2216922861        0.1168412892        0.5000058283
H                0.7783077139        0.8831587108        0.5000058283
H                0.6392083122        0.1424142412        0.7811830895
H                0.3607916878        0.8575857588        0.7811830895
H                0.1392083122        0.3575857588        0.7188169105
H                0.8607916878        0.6424142412        0.7188169105
H                0.3605905475        0.8576302362        0.2188360163
H                0.6394094525        0.1423697638        0.2188360163
H                0.8605905475        0.6423697638        0.2811639837
H                0.1394094525        0.3576302362        0.2811639837



     Writing config-only to output data dir ./pwscf.save/ :
     XML data file
     NEW-OLD atomic charge density approx. for the potential

     total cpu time spent up to now is      229.7 secs

     Self-consistent Calculation

     iteration #  1     ecut=   100.00 Ry     beta= 0.70
     Davidson diagonalization with overlap
     ethr =  1.00E-06,  avg # of iterations =  1.0

     Threshold (ethr) on eigenvalues was too large:
     Diagonalizing with lowered threshold

     Davidson diagonalization with overlap
     ethr =  1.16E-10,  avg # of iterations =  4.1

     total cpu time spent up to now is      244.5 secs

     total energy              =    -156.47473643 Ry
     estimated scf accuracy    <       0.00000019 Ry

     iteration #  2     ecut=   100.00 Ry     beta= 0.70
     Davidson diagonalization with overlap
     ethr =  3.88E-10,  avg # of iterations =  2.0

     total cpu time spent up to now is      251.1 secs

     total energy              =    -156.47473648 Ry
     estimated scf accuracy    <       0.00000003 Ry

     iteration #  3     ecut=   100.00 Ry     beta= 0.70
     Davidson diagonalization with overlap
     ethr =  6.01E-11,  avg # of iterations =  2.0

     total cpu time spent up to now is      257.7 secs

     total energy              =    -156.47473648 Ry
     estimated scf accuracy    <          5.1E-10 Ry

     iteration #  4     ecut=   100.00 Ry     beta= 0.70
     Davidson diagonalization with overlap
     ethr =  1.06E-12,  avg # of iterations =  3.5

     total cpu time spent up to now is      265.6 secs

     total energy              =    -156.47473648 Ry
     estimated scf accuracy    <          1.3E-10 Ry

     iteration #  5     ecut=   100.00 Ry     beta= 0.70
     Davidson diagonalization with overlap
     ethr =  2.76E-13,  avg # of iterations =  4.0

     total cpu time spent up to now is      273.0 secs

     End of self-consistent calculation

          k = 0.0000 0.0000 0.0000 ( 24327 PWs)   bands (ev):

   -23.8828 -23.8737  -9.4325  -9.3431  -9.1456  -9.1061  -9.0760  -9.0118
    -6.0261  -5.0737  -4.3887  -4.2401  -1.7190  -0.8089  -0.7401  -0.3940
    -0.0095   0.0107   0.0563   0.1775   0.3443   0.7507   0.7675   0.8082

          k = 0.0000 0.0000 0.3612 ( 24350 PWs)   bands (ev):

   -23.8749 -23.8685  -9.3354  -9.3345  -9.3098  -9.2749  -9.1272  -9.1055
    -5.5182  -4.8090  -4.5644  -4.4704  -1.3332  -1.0778  -0.6202  -0.5724
    -0.4239  -0.3052   0.0620   0.3503   0.5469   0.5844   0.6628   0.8099

          k = 0.0000 0.0000-0.7224 ( 24312 PWs)   bands (ev):

   -23.8650 -23.8650  -9.5572  -9.5570  -9.1881  -9.1880  -9.1368  -9.1368
    -4.8002  -4.7997  -4.7241  -4.7235  -1.0947  -1.0942  -1.0817  -1.0802
    -0.0241  -0.0234   0.0510   0.0529   0.6264   0.6264   0.6410   0.6413

          k = 0.0000 0.2437 0.0000 ( 24325 PWs)   bands (ev):

   -23.8814 -23.8751  -9.4027  -9.3121  -9.2003  -9.1422  -9.0664  -9.0210
    -5.8238  -4.9821  -4.6781  -4.3720  -1.3539  -0.9263  -0.8852  -0.1062
    -0.0915  -0.0746   0.2233   0.3463   0.4233   0.4356   0.6625   0.7389

          k = 0.0000 0.2437 0.3612 ( 24349 PWs)   bands (ev):

   -23.8739 -23.8694  -9.3814  -9.3414  -9.2599  -9.2464  -9.1367  -9.1279
    -5.4117  -4.8842  -4.6067  -4.5106  -1.1423  -1.1022  -0.9052  -0.3327
    -0.2899  -0.0986  -0.0828   0.4029   0.4790   0.5259   0.6320   0.6888

          k = 0.0000 0.2437-0.7224 ( 24338 PWs)   bands (ev):

   -23.8650 -23.8650  -9.5710  -9.5709  -9.1691  -9.1691  -9.1359  -9.1359
    -5.0889  -5.0889  -4.4238  -4.4238  -1.2175  -1.2168  -0.9028  -0.9020
     0.0502   0.0504   0.0923   0.0939   0.4533   0.4533   0.6349   0.6351

          k = 0.0000-0.4874 0.0000 ( 24346 PWs)   bands (ev):

   -23.8782 -23.8782  -9.3187  -9.3187  -9.2244  -9.2244  -9.0435  -9.0435
    -5.3182  -5.3182  -4.6634  -4.6634  -1.0488  -1.0488  -0.4156  -0.4156
    -0.1722  -0.1722   0.3352   0.3352   0.4720   0.4720   0.5942   0.5942

          k = 0.0000-0.4874 0.3612 ( 24342 PWs)   bands (ev):

   -23.8716 -23.8716  -9.3805  -9.3805  -9.2026  -9.2026  -9.1668  -9.1668
    -5.1466  -5.1466  -4.5845  -4.5845  -1.0853  -1.0853  -0.6727  -0.6727
    -0.0467  -0.0467   0.2388   0.2388   0.3909   0.3909   0.6074   0.6074

          k = 0.0000-0.4874-0.7224 ( 24380 PWs)   bands (ev):

   -23.8650 -23.8650  -9.5837  -9.5837  -9.1533  -9.1533  -9.1330  -9.1330
    -5.2208  -5.2208  -4.2807  -4.2807  -1.3088  -1.3088  -0.6548  -0.6548
    -0.0270  -0.0270   0.1691   0.1691   0.2575   0.2575   0.6720   0.6720

          k = 0.2499 0.0000 0.0000 ( 24322 PWs)   bands (ev):

   -23.8814 -23.8750  -9.3929  -9.3241  -9.1900  -9.1594  -9.0664  -9.0210
    -5.8327  -5.1049  -4.4297  -4.3975  -1.5261  -0.6644  -0.6516  -0.5200
     0.0327   0.0685   0.1357   0.1989   0.3009   0.3233   0.7148   0.7519

          k = 0.2499 0.0000 0.3612 ( 24348 PWs)   bands (ev):

   -23.8739 -23.8694  -9.3721  -9.3534  -9.2891  -9.2220  -9.1531  -9.1155
    -5.3676  -4.7932  -4.6024  -4.5975  -1.3030  -1.0595  -0.9100  -0.3847
    -0.3687  -0.0931   0.1348   0.2716   0.4102   0.5410   0.7332   0.7618

          k = 0.2499 0.0000-0.7224 ( 24380 PWs)   bands (ev):

   -23.8650 -23.8650  -9.5758  -9.5757  -9.1741  -9.1740  -9.1334  -9.1333
    -4.8860  -4.8857  -4.6070  -4.6066  -1.5677  -1.5672  -0.6358  -0.6355
    -0.0317  -0.0313   0.3013   0.3028   0.4285   0.4286   0.6742   0.6745

          k = 0.2499 0.2437 0.0000 ( 24329 PWs)   bands (ev):

   -23.8805 -23.8760  -9.4211  -9.2996  -9.2431  -9.1129  -9.0595  -9.0274
    -5.6889  -5.0629  -4.6744  -4.4317  -1.2354  -0.8986  -0.6813  -0.2175
    -0.1439  -0.0959   0.2063   0.3560   0.3693   0.4521   0.5200   0.6689

          k = 0.2499 0.2437 0.3612 ( 24335 PWs)   bands (ev):

   -23.8732 -23.8700  -9.3745  -9.3340  -9.3272  -9.2020  -9.1640  -9.1087
    -5.2784  -4.8320  -4.6929  -4.5892  -1.2661  -1.0223  -0.9306  -0.3730
    -0.2112  -0.0335   0.0690   0.2913   0.3892   0.5033   0.6545   0.7401

          k = 0.2499 0.2437-0.7224 ( 24350 PWs)   bands (ev):

   -23.8650 -23.8650  -9.5830  -9.5589  -9.1959  -9.1551  -9.1410  -9.1339
    -5.0996  -4.9156  -4.5695  -4.3802  -1.5438  -1.4619  -0.7068  -0.5994
    -0.0805  -0.0779   0.2724   0.3362   0.4430   0.4873   0.6226   0.6525

          k = 0.2499-0.4874 0.0000 ( 24326 PWs)   bands (ev):

   -23.8782 -23.8782  -9.3953  -9.3953  -9.1484  -9.1484  -9.0431  -9.0431
    -5.3218  -5.3218  -4.6492  -4.6492  -0.9539  -0.9539  -0.4259  -0.4259
    -0.2105  -0.2105   0.2678   0.2678   0.5099   0.5099   0.5273   0.5273

          k = 0.2499-0.4874 0.3612 ( 24326 PWs)   bands (ev):

   -23.8716 -23.8716  -9.3689  -9.3689  -9.2657  -9.2657  -9.1230  -9.1230
    -5.0563  -5.0563  -4.6553  -4.6553  -1.1746  -1.1746  -0.6002  -0.6002
    -0.0682  -0.0682   0.2578   0.2578   0.4015   0.4015   0.6269   0.6269

          k = 0.2499-0.4874-0.7224 ( 24340 PWs)   bands (ev):

   -23.8650 -23.8650  -9.5671  -9.5671  -9.1777  -9.1777  -9.1398  -9.1398
    -5.1103  -5.1103  -4.3618  -4.3618  -1.4305  -1.4305  -0.7172  -0.7172
     0.0351   0.0351   0.1645   0.1645   0.4787   0.4787   0.6415   0.6415

          k =-0.4999 0.0000 0.0000 ( 24312 PWs)   bands (ev):

   -23.8782 -23.8782  -9.2960  -9.2960  -9.2560  -9.2560  -9.0435  -9.0435
    -5.3986  -5.3986  -4.4980  -4.4980  -1.0998  -1.0998  -0.2994  -0.2994
     0.0724   0.0724   0.0842   0.0842   0.1810   0.1810   0.6022   0.6022

          k =-0.4999 0.0000 0.3612 ( 24384 PWs)   bands (ev):

   -23.8716 -23.8716  -9.3844  -9.3844  -9.2249  -9.2249  -9.1522  -9.1522
    -5.0143  -5.0143  -4.6655  -4.6655  -1.2266  -1.2266  -0.6605  -0.6605
    -0.0683  -0.0683   0.1248   0.1248   0.5047   0.5047   0.7200   0.7200

          k =-0.4999 0.0000-0.7224 ( 24376 PWs)   bands (ev):

   -23.8650 -23.8650  -9.5931  -9.5931  -9.1628  -9.1628  -9.1285  -9.1285
    -4.9302  -4.9302  -4.5288  -4.5288  -1.7815  -1.7815  -0.3384  -0.3384
    -0.0369  -0.0369   0.1340   0.1340   0.6180   0.6180   0.6321   0.6321

          k =-0.4999 0.2437 0.0000 ( 24286 PWs)   bands (ev):

   -23.8782 -23.8782  -9.3937  -9.3937  -9.1544  -9.1544  -9.0431  -9.0431
    -5.3655  -5.3655  -4.5631  -4.5631  -0.9925  -0.9925  -0.3060  -0.3060
    -0.1427  -0.1427   0.0453   0.0453   0.4188   0.4188   0.5817   0.5817

          k =-0.4999 0.2437 0.3612 ( 24334 PWs)   bands (ev):

   -23.8716 -23.8716  -9.3714  -9.3714  -9.2702  -9.2702  -9.1218  -9.1218
    -4.9708  -4.9708  -4.7149  -4.7149  -1.2320  -1.2320  -0.6329  -0.6329
    -0.0333  -0.0333   0.1724   0.1724   0.4968   0.4968   0.6512   0.6512

          k =-0.4999 0.2437-0.7224 ( 24372 PWs)   bands (ev):

   -23.8650 -23.8650  -9.5722  -9.5722  -9.1804  -9.1804  -9.1390  -9.1390
    -4.9487  -4.9487  -4.5020  -4.5020  -1.6781  -1.6781  -0.5503  -0.5503
     0.0084   0.0084   0.2067   0.2067   0.5537   0.5537   0.6942   0.6942

          k =-0.4999-0.4874 0.0000 ( 24292 PWs)   bands (ev):

   -23.8782 -23.8782  -9.4402  -9.4402  -9.1039  -9.1039  -9.0427  -9.0427
    -5.3272  -5.3272  -4.6322  -4.6322  -0.8391  -0.8391  -0.4579  -0.4579
    -0.2450  -0.2450   0.2360   0.2360   0.4253   0.4253   0.5442   0.5442

          k =-0.4999-0.4874 0.3612 ( 24356 PWs)   bands (ev):

   -23.8716 -23.8716  -9.3458  -9.3458  -9.3157  -9.3157  -9.1039  -9.1039
    -4.8983  -4.8983  -4.7929  -4.7929  -1.2197  -1.2197  -0.6736  -0.6736
     0.1208   0.1208   0.2585   0.2585   0.4045   0.4045   0.5584   0.5584

          k =-0.4999-0.4874-0.7224 ( 24344 PWs)   bands (ev):

   -23.8650 -23.8650  -9.5485  -9.5485  -9.2045  -9.2045  -9.1459  -9.1459
    -4.9658  -4.9658  -4.4763  -4.4763  -1.5192  -1.5192  -0.8455  -0.8455
     0.2341   0.2341   0.2797   0.2797   0.4258   0.4258   0.6610   0.6610

     highest occupied level (ev):     0.8099

!    total energy              =    -156.47473648 Ry
     estimated scf accuracy    <          1.3E-12 Ry

     The total energy is the sum of the following terms:
     one-electron contribution =     -22.23238552 Ry
     hartree contribution      =      25.50704466 Ry
     xc contribution           =     -49.12127099 Ry
     ewald contribution        =    -110.62812464 Ry

     convergence has been achieved in   5 iterations

     Forces acting on atoms (cartesian axes, Ry/au):

     atom    1 type  2   force =     0.00000000    0.00000000    0.00000436
     atom    2 type  2   force =     0.00000000    0.00000000   -0.00000436
     atom    3 type  1   force =     0.00008955    0.00016768   -0.00000795
     atom    4 type  1   force =    -0.00008955   -0.00016768   -0.00000795
     atom    5 type  1   force =     0.00008955   -0.00016768    0.00000795
     atom    6 type  1   force =    -0.00008955    0.00016768    0.00000795
     atom    7 type  3   force =     0.00008966    0.00009044   -0.00001856
     atom    8 type  3   force =    -0.00008966   -0.00009044   -0.00001856
     atom    9 type  3   force =     0.00008966   -0.00009044    0.00001856
     atom   10 type  3   force =    -0.00008966    0.00009044    0.00001856
     atom   11 type  3   force =    -0.00000706    0.00021773    0.00000286
     atom   12 type  3   force =     0.00000706   -0.00021773    0.00000286
     atom   13 type  3   force =    -0.00000706   -0.00021773   -0.00000286
     atom   14 type  3   force =     0.00000706    0.00021773   -0.00000286
     atom   15 type  3   force =     0.00012556    0.00009357   -0.00006710
     atom   16 type  3   force =    -0.00012556   -0.00009357   -0.00006710
     atom   17 type  3   force =     0.00012556   -0.00009357    0.00006710
     atom   18 type  3   force =    -0.00012556    0.00009357    0.00006710
     atom   19 type  3   force =    -0.00008887   -0.00010383    0.00006209
     atom   20 type  3   force =     0.00008887    0.00010383    0.00006209
     atom   21 type  3   force =    -0.00008887    0.00010383   -0.00006209
     atom   22 type  3   force =     0.00008887   -0.00010383   -0.00006209

     Total force =     0.000779     Total SCF correction =     0.000000


     Computing stress (Cartesian axis) and pressure

          total   stress  (Ry/bohr**3)                   (kbar)     P=       -2.57
  -0.00001639   0.00000000   0.00000000           -2.41        0.00        0.00
   0.00000000  -0.00001646   0.00000000            0.00       -2.42        0.00
   0.00000000   0.00000000  -0.00001951            0.00        0.00       -2.87

     Volume is kept fixed: isostatic pressure set to zero
     Energy error            =      1.0E-06 Ry
     Gradient error          =      2.2E-04 Ry/Bohr
     Cell gradient error     =      3.0E-01 kbar

     number of scf cycles    =   4
     number of bfgs steps    =   3

     enthalpy           old  =    -156.4747354830 Ry
     enthalpy           new  =    -156.4747364814 Ry

     CASE: enthalpy          _new < enthalpy          _old

     new trust radius        =       0.0007914505 bohr
ibrav =      8
 celldm(1) =     12.66479066
 celldm(2) =      1.02551970
 celldm(3) =      0.69182818
Input lattice vectors:
     1.00028928     0.00000000     0.00000000
     0.00000000     1.02581636     0.00000000
     0.00000000     0.00000000     0.69202831
New lattice vectors in INITIAL alat:
     1.00028928     0.00000000     0.00000000
     0.00000000     1.02581636     0.00000000
     0.00000000     0.00000000     0.69202831
New lattice vectors in NEW alat (for information only):
     1.00000000     0.00000000     0.00000000
     0.00000000     1.02551970     0.00000000
     0.00000000     0.00000000     0.69182818
Discrepancy in bohr =     0.000000    0.000000    0.000000
     new conv_thr            =            1.0E-12 Ry

     new unit-cell volume =   1441.23999 a.u.^3 (   213.56973 Ang^3 )
     density =      2.59710 g/cm^3

CELL_PARAMETERS (alat= 12.66112811)
   1.000289275   0.000000000   0.000000000
   0.000000000   1.025816361   0.000000000
   0.000000000   0.000000000   0.692028310

ATOMIC_POSITIONS (crystal)
Ba               0.5000000000        0.5000000000        0.5001054791
Ba               0.0000000000        0.0000000000        0.9998945209
B                0.6102996846        0.2393368724        0.0000580968
B                0.3897003154        0.7606631276        0.0000580968
B                0.1102996846        0.2606631276        0.4999419032
B                0.8897003154        0.7393368724        0.4999419032
H                0.4346830362        0.2920441352        0.0002178477
H                0.5653169638        0.7079558648        0.0002178477
H                0.9346830362        0.2079558648        0.4997821523
H                0.0653169638        0.7920441352        0.4997821523
H                0.7216821430        0.3831784176       -0.0000051770
H                0.2783178570        0.6168215824       -0.0000051770
H                0.2216821430        0.1168215824        0.5000051770
H                0.7783178570        0.8831784176        0.5000051770
H                0.6392246892        0.1424338767        0.7811869311
H                0.3607753108        0.8575661233        0.7811869311
H                0.1392246892        0.3575661233        0.7188130689
H                0.8607753108        0.6424338767        0.7188130689
H                0.3605796851        0.8576090190        0.2188310225
H                0.6394203149        0.1423909810        0.2188310225
H                0.8605796851        0.6423909810        0.2811689775
H                0.1394203149        0.3576090190        0.2811689775



     Writing config-only to output data dir ./pwscf.save/ :
     XML data file
     NEW-OLD atomic charge density approx. for the potential

     total cpu time spent up to now is      281.4 secs

     Self-consistent Calculation

     iteration #  1     ecut=   100.00 Ry     beta= 0.70
     Davidson diagonalization with overlap
     ethr =  1.00E-06,  avg # of iterations =  1.0

     Threshold (ethr) on eigenvalues was too large:
     Diagonalizing with lowered threshold

     Davidson diagonalization with overlap
     ethr =  1.66E-10,  avg # of iterations =  4.3

     total cpu time spent up to now is      296.6 secs

     total energy              =    -156.47473782 Ry
     estimated scf accuracy    <       0.00000021 Ry

     iteration #  2     ecut=   100.00 Ry     beta= 0.70
     Davidson diagonalization with overlap
     ethr =  4.36E-10,  avg # of iterations =  2.0

     total cpu time spent up to now is      303.2 secs

     total energy              =    -156.47473786 Ry
     estimated scf accuracy    <       0.00000002 Ry

     iteration #  3     ecut=   100.00 Ry     beta= 0.70
     Davidson diagonalization with overlap
     ethr =  3.43E-11,  avg # of iterations =  2.0

     total cpu time spent up to now is      309.8 secs

     total energy              =    -156.47473787 Ry
     estimated scf accuracy    <          6.1E-10 Ry

     iteration #  4     ecut=   100.00 Ry     beta= 0.70
     Davidson diagonalization with overlap
     ethr =  1.27E-12,  avg # of iterations =  4.1

     total cpu time spent up to now is      317.7 secs

     total energy              =    -156.47473787 Ry
     estimated scf accuracy    <          7.4E-11 Ry

     iteration #  5     ecut=   100.00 Ry     beta= 0.70
     Davidson diagonalization with overlap
     ethr =  1.54E-13,  avg # of iterations =  3.9

     total cpu time spent up to now is      325.3 secs

     total energy              =    -156.47473787 Ry
     estimated scf accuracy    <          2.6E-12 Ry

     iteration #  6     ecut=   100.00 Ry     beta= 0.70
     Davidson diagonalization with overlap
     ethr =  1.00E-13,  avg # of iterations =  1.1

     total cpu time spent up to now is      330.4 secs

     End of self-consistent calculation

          k = 0.0000 0.0000 0.0000 ( 24327 PWs)   bands (ev):

   -23.8827 -23.8736  -9.4325  -9.3431  -9.1456  -9.1060  -9.0759  -9.0117
    -6.0264  -5.0742  -4.3891  -4.2406  -1.7195  -0.8092  -0.7403  -0.3948
    -0.0093   0.0099   0.0569   0.1776   0.3448   0.7502   0.7671   0.8071

          k = 0.0000 0.0000 0.3613 ( 24350 PWs)   bands (ev):

   -23.8748 -23.8684  -9.3354  -9.3346  -9.3099  -9.2749  -9.1272  -9.1054
    -5.5183  -4.8092  -4.5650  -4.4710  -1.3334  -1.0781  -0.6206  -0.5726
    -0.4239  -0.3050   0.0618   0.3500   0.5466   0.5836   0.6625   0.8090

          k = 0.0000 0.0000-0.7225 ( 24312 PWs)   bands (ev):

   -23.8649 -23.8649  -9.5576  -9.5574  -9.1879  -9.1879  -9.1367  -9.1367
    -4.8001  -4.7997  -4.7248  -4.7243  -1.0946  -1.0940  -1.0820  -1.0805
    -0.0243  -0.0237   0.0508   0.0526   0.6255   0.6255   0.6405   0.6408

          k = 0.0000 0.2437 0.0000 ( 24325 PWs)   bands (ev):

   -23.8813 -23.8750  -9.4028  -9.3121  -9.2003  -9.1422  -9.0663  -9.0209
    -5.8242  -4.9826  -4.6784  -4.3724  -1.3545  -0.9266  -0.8855  -0.1059
    -0.0910  -0.0754   0.2225   0.3466   0.4223   0.4360   0.6619   0.7384

          k = 0.0000 0.2437 0.3613 ( 24349 PWs)   bands (ev):

   -23.8738 -23.8693  -9.3815  -9.3415  -9.2600  -9.2464  -9.1367  -9.1278
    -5.4118  -4.8845  -4.6072  -4.5112  -1.1425  -1.1024  -0.9055  -0.3326
    -0.2901  -0.0991  -0.0829   0.4025   0.4786   0.5251   0.6317   0.6882

          k = 0.0000 0.2437-0.7225 ( 24338 PWs)   bands (ev):

   -23.8649 -23.8649  -9.5714  -9.5712  -9.1690  -9.1690  -9.1359  -9.1359
    -5.0892  -5.0892  -4.4242  -4.4241  -1.2177  -1.2171  -0.9027  -0.9019
     0.0498   0.0500   0.0920   0.0936   0.4529   0.4530   0.6340   0.6342

          k = 0.0000-0.4874 0.0000 ( 24346 PWs)   bands (ev):

   -23.8781 -23.8781  -9.3188  -9.3188  -9.2244  -9.2244  -9.0434  -9.0434
    -5.3187  -5.3187  -4.6638  -4.6638  -1.0492  -1.0492  -0.4163  -0.4163
    -0.1717  -0.1717   0.3344   0.3344   0.4722   0.4722   0.5937   0.5937

          k = 0.0000-0.4874 0.3613 ( 24342 PWs)   bands (ev):

   -23.8715 -23.8715  -9.3806  -9.3806  -9.2026  -9.2026  -9.1668  -9.1668
    -5.1468  -5.1468  -4.5850  -4.5850  -1.0855  -1.0855  -0.6730  -0.6730
    -0.0469  -0.0469   0.2387   0.2387   0.3900   0.3900   0.6070   0.6070

          k = 0.0000-0.4874-0.7225 ( 24380 PWs)   bands (ev):

   -23.8649 -23.8649  -9.5840  -9.5840  -9.1532  -9.1532  -9.1330  -9.1330
    -5.2211  -5.2211  -4.2810  -4.2810  -1.3091  -1.3091  -0.6546  -0.6546
    -0.0276  -0.0276   0.1689   0.1689   0.2570   0.2570   0.6712   0.6712

          k = 0.2499 0.0000 0.0000 ( 24322 PWs)   bands (ev):

   -23.8813 -23.8749  -9.3930  -9.3241  -9.1900  -9.1593  -9.0663  -9.0209
    -5.8330  -5.1054  -4.4302  -4.3979  -1.5266  -0.6651  -0.6518  -0.5204
     0.0331   0.0688   0.1360   0.1980   0.3012   0.3230   0.7142   0.7508

          k = 0.2499 0.0000 0.3613 ( 24348 PWs)   bands (ev):

   -23.8738 -23.8693  -9.3722  -9.3535  -9.2892  -9.2221  -9.1531  -9.1155
    -5.3677  -4.7934  -4.6029  -4.5980  -1.3031  -1.0598  -0.9101  -0.3849
    -0.3690  -0.0931   0.1344   0.2711   0.4101   0.5407   0.7323   0.7614

          k = 0.2499 0.0000-0.7225 ( 24380 PWs)   bands (ev):

   -23.8649 -23.8649  -9.5762  -9.5760  -9.1740  -9.1739  -9.1333  -9.1333
    -4.8865  -4.8862  -4.6071  -4.6068  -1.5677  -1.5672  -0.6359  -0.6356
    -0.0320  -0.0316   0.3010   0.3024   0.4279   0.4279   0.6736   0.6739

          k = 0.2499 0.2437 0.0000 ( 24329 PWs)   bands (ev):

   -23.8804 -23.8759  -9.4212  -9.2996  -9.2431  -9.1129  -9.0594  -9.0273
    -5.6893  -5.0635  -4.6746  -4.4321  -1.2361  -0.8990  -0.6817  -0.2181
    -0.1435  -0.0954   0.2056   0.3562   0.3684   0.4524   0.5194   0.6682

          k = 0.2499 0.2437 0.3613 ( 24335 PWs)   bands (ev):

   -23.8731 -23.8699  -9.3746  -9.3341  -9.3272  -9.2020  -9.1639  -9.1087
    -5.2786  -4.8323  -4.6933  -4.5898  -1.2661  -1.0224  -0.9310  -0.3732
[...]
     1.00262679     0.00000000     0.00000000
     0.00000000     1.02538983     0.00000000
     0.00000000     0.00000000     0.69070211
New lattice vectors in INITIAL alat:
     1.00262679     0.00000000     0.00000000
     0.00000000     1.02538983     0.00000000
     0.00000000     0.00000000     0.69070211
New lattice vectors in NEW alat (for information only):
     1.00000000     0.00000000     0.00000000
     0.00000000     1.02270339     0.00000000
     0.00000000     0.00000000     0.68889253
Discrepancy in bohr =     0.000000    0.000000    0.000000
     new conv_thr            =            1.0E-12 Ry

     new unit-cell volume =   1441.23999 a.u.^3 (   213.56973 Ang^3 )
     density =      2.59710 g/cm^3

CELL_PARAMETERS (alat= 12.66112811)
   1.002626795   0.000000000   0.000000000
   0.000000000   1.025389825   0.000000000
   0.000000000   0.000000000   0.690702113

ATOMIC_POSITIONS (crystal)
Ba               0.5000000000        0.5000000000        0.5000137701
Ba               0.0000000000        0.0000000000        0.9999862299
B                0.6118030390        0.2403250050        0.0000041767
B                0.3881969610        0.7596749950        0.0000041767
B                0.1118030390        0.2596749950        0.4999958233
B                0.8881969610        0.7403250050        0.4999958233
H                0.4362181902        0.2917733522        0.0000126471
H                0.5637818098        0.7082266478        0.0000126471
H                0.9362181902        0.2082266478        0.4999873529
H                0.0637818098        0.7917733522        0.4999873529
H                0.7217665786        0.3850763229       -0.0000138146
H                0.2782334214        0.6149236771       -0.0000138146
H                0.2217665786        0.1149236771        0.5000138146
H                0.7782334214        0.8850763229        0.5000138146
H                0.6414650867        0.1436997665        0.7806229466
H                0.3585349133        0.8563002335        0.7806229466
H                0.1414650867        0.3563002335        0.7193770534
H                0.8585349133        0.6436997665        0.7193770534
H                0.3585198315        0.8563046605        0.2193780331
H                0.6414801685        0.1436953395        0.2193780331
H                0.8585198315        0.6436953395        0.2806219669
H                0.1414801685        0.3563046605        0.2806219669



     Writing config-only to output data dir ./pwscf.save/ :
     XML data file
     NEW-OLD atomic charge density approx. for the potential

     total cpu time spent up to now is     2712.6 secs

     Self-consistent Calculation

     iteration #  1     ecut=   100.00 Ry     beta= 0.70
     Davidson diagonalization with overlap
     ethr =  1.00E-06,  avg # of iterations =  1.0

     Threshold (ethr) on eigenvalues was too large:
     Diagonalizing with lowered threshold

     Davidson diagonalization with overlap
     ethr =  8.19E-14,  avg # of iterations =  4.0

     total cpu time spent up to now is     2728.0 secs

     total energy              =    -156.47478212 Ry
     estimated scf accuracy    <          8.0E-11 Ry

     iteration #  2     ecut=   100.00 Ry     beta= 0.70
     Davidson diagonalization with overlap
     ethr =  1.66E-13,  avg # of iterations =  2.0

     total cpu time spent up to now is     2734.6 secs

     total energy              =    -156.47478212 Ry
     estimated scf accuracy    <          7.5E-12 Ry

     iteration #  3     ecut=   100.00 Ry     beta= 0.70
     Davidson diagonalization with overlap
     ethr =  1.00E-13,  avg # of iterations =  1.0

     total cpu time spent up to now is     2739.7 secs

     End of self-consistent calculation

          k = 0.0000 0.0000 0.0000 ( 24327 PWs)   bands (ev):

   -23.8728 -23.8637  -9.4297  -9.3417  -9.1404  -9.0998  -9.0682  -9.0037
    -6.0312  -5.0781  -4.3904  -4.2510  -1.7284  -0.8100  -0.7419  -0.3941
    -0.0234  -0.0191   0.0625   0.1529   0.3474   0.7449   0.7598   0.8010

          k = 0.0000 0.0000 0.3620 ( 24350 PWs)   bands (ev):

   -23.8647 -23.8582  -9.3328  -9.3311  -9.3084  -9.2715  -9.1214  -9.0987
    -5.5157  -4.8056  -4.5708  -4.4828  -1.3362  -1.0931  -0.6520  -0.5740
    -0.4207  -0.3058   0.0610   0.3456   0.5426   0.5725   0.6486   0.7964

          k = 0.0000 0.0000-0.7239 ( 24312 PWs)   bands (ev):

   -23.8546 -23.8546  -9.5602  -9.5602  -9.1814  -9.1814  -9.1306  -9.1306
    -4.7904  -4.7904  -4.7367  -4.7367  -1.1059  -1.1059  -1.0977  -1.0977
    -0.0225  -0.0223   0.0515   0.0516   0.6084   0.6084   0.6343   0.6344

          k = 0.0000 0.2438 0.0000 ( 24325 PWs)   bands (ev):

   -23.8714 -23.8650  -9.3998  -9.3103  -9.1952  -9.1366  -9.0586  -9.0129
    -5.8291  -4.9908  -4.6761  -4.3803  -1.3673  -0.9313  -0.8859  -0.1112
    -0.0913  -0.0776   0.2004   0.3276   0.4172   0.4273   0.6563   0.7312

          k = 0.0000 0.2438 0.3620 ( 24349 PWs)   bands (ev):

   -23.8637 -23.8592  -9.3790  -9.3396  -9.2563  -9.2427  -9.1311  -9.1215
    -5.4094  -4.8818  -4.6127  -4.5215  -1.1477  -1.1170  -0.9215  -0.3375
    -0.3000  -0.0969  -0.0872   0.3951   0.4773   0.5129   0.6219   0.6767

          k = 0.0000 0.2438-0.7239 ( 24338 PWs)   bands (ev):

   -23.8546 -23.8546  -9.5739  -9.5739  -9.1625  -9.1625  -9.1299  -9.1299
    -5.0898  -5.0897  -4.4260  -4.4260  -1.2441  -1.2441  -0.9050  -0.9050
     0.0531   0.0532   0.0914   0.0914   0.4461   0.4462   0.6197   0.6197

          k = 0.0000-0.4876 0.0000 ( 24346 PWs)   bands (ev):

   -23.8682 -23.8682  -9.3156  -9.3156  -9.2200  -9.2200  -9.0355  -9.0355
    -5.3251  -5.3251  -4.6659  -4.6659  -1.0607  -1.0607  -0.4183  -0.4183
    -0.1718  -0.1718   0.3271   0.3271   0.4544   0.4544   0.5837   0.5837

          k = 0.0000-0.4876 0.3620 ( 24342 PWs)   bands (ev):

   -23.8614 -23.8614  -9.3785  -9.3785  -9.1988  -9.1988  -9.1611  -9.1611
    -5.1445  -5.1445  -4.5922  -4.5922  -1.1014  -1.1014  -0.6775  -0.6775
    -0.0580  -0.0580   0.2431   0.2431   0.3777   0.3777   0.5990   0.5990

          k = 0.0000-0.4876-0.7239 ( 24380 PWs)   bands (ev):

   -23.8546 -23.8546  -9.5864  -9.5864  -9.1466  -9.1466  -9.1271  -9.1271
    -5.2220  -5.2220  -4.2821  -4.2821  -1.3373  -1.3373  -0.6600  -0.6600
    -0.0183  -0.0183   0.1687   0.1687   0.2441   0.2441   0.6613   0.6613

          k = 0.2493 0.0000 0.0000 ( 24322 PWs)   bands (ev):

   -23.8714 -23.8650  -9.3899  -9.3218  -9.1851  -9.1535  -9.0586  -9.0129
    -5.8385  -5.1098  -4.4327  -4.4075  -1.5336  -0.6713  -0.6526  -0.5251
     0.0279   0.0636   0.1205   0.1739   0.2967   0.3244   0.7061   0.7432

          k = 0.2493 0.0000 0.3620 ( 24348 PWs)   bands (ev):

   -23.8637 -23.8591  -9.3700  -9.3508  -9.2854  -9.2184  -9.1474  -9.1092
    -5.3668  -4.7902  -4.6146  -4.6038  -1.3081  -1.0677  -0.9256  -0.3846
    -0.3699  -0.1003   0.1204   0.2625   0.4043   0.5364   0.7188   0.7482

          k = 0.2493 0.0000-0.7239 ( 24380 PWs)   bands (ev):

   -23.8546 -23.8546  -9.5786  -9.5785  -9.1675  -9.1674  -9.1271  -9.1271
    -4.8952  -4.8952  -4.6015  -4.6015  -1.5787  -1.5787  -0.6466  -0.6466
    -0.0275  -0.0274   0.2922   0.2922   0.4147   0.4148   0.6625   0.6626

          k = 0.2493 0.2438 0.0000 ( 24329 PWs)   bands (ev):

   -23.8705 -23.8659  -9.4185  -9.2965  -9.2386  -9.1071  -9.0516  -9.0193
    -5.6963  -5.0737  -4.6735  -4.4355  -1.2481  -0.9058  -0.6874  -0.2215
    -0.1471  -0.0969   0.1953   0.3400   0.3524   0.4411   0.5222   0.6614

          k = 0.2493 0.2438 0.3620 ( 24335 PWs)   bands (ev):

   -23.8630 -23.8598  -9.3723  -9.3322  -9.3231  -9.1981  -9.1583  -9.1023
    -5.2780  -4.8314  -4.6994  -4.5972  -1.2728  -1.0371  -0.9405  -0.3801
    -0.2173  -0.0411   0.0654   0.2894   0.3779   0.4955   0.6445   0.7288

          k = 0.2493 0.2438-0.7239 ( 24350 PWs)   bands (ev):

   -23.8546 -23.8546  -9.5857  -9.5619  -9.1890  -9.1485  -9.1347  -9.1278
    -5.1049  -4.9163  -4.5731  -4.3788  -1.5609  -1.4708  -0.7293  -0.6092
    -0.0752  -0.0739   0.2675   0.3374   0.4255   0.4767   0.6161   0.6375

          k = 0.2493-0.4876 0.0000 ( 24326 PWs)   bands (ev):

   -23.8682 -23.8682  -9.3923  -9.3923  -9.1432  -9.1432  -9.0352  -9.0352
    -5.3337  -5.3337  -4.6467  -4.6467  -0.9694  -0.9694  -0.4314  -0.4314
    -0.2107  -0.2107   0.2607   0.2607   0.4935   0.4935   0.5236   0.5236

          k = 0.2493-0.4876 0.3620 ( 24326 PWs)   bands (ev):

   -23.8614 -23.8614  -9.3664  -9.3664  -9.2622  -9.2622  -9.1170  -9.1170
    -5.0570  -5.0570  -4.6608  -4.6608  -1.1855  -1.1855  -0.6136  -0.6136
    -0.0760  -0.0760   0.2534   0.2534   0.4007   0.4007   0.6158   0.6158

          k = 0.2493-0.4876-0.7239 ( 24340 PWs)   bands (ev):

   -23.8546 -23.8546  -9.5701  -9.5701  -9.1708  -9.1708  -9.1337  -9.1337
    -5.1121  -5.1121  -4.3640  -4.3640  -1.4472  -1.4472  -0.7338  -0.7338
     0.0366   0.0366   0.1664   0.1664   0.4706   0.4706   0.6309   0.6309

          k =-0.4987 0.0000 0.0000 ( 24312 PWs)   bands (ev):

   -23.8682 -23.8682  -9.2931  -9.2931  -9.2508  -9.2508  -9.0356  -9.0356
    -5.4051  -5.4051  -4.5041  -4.5041  -1.1070  -1.1070  -0.3010  -0.3010
     0.0716   0.0716   0.0736   0.0736   0.1674   0.1674   0.5913   0.5913

          k =-0.4987 0.0000 0.3620 ( 24384 PWs)   bands (ev):

   -23.8614 -23.8614  -9.3820  -9.3820  -9.2205  -9.2205  -9.1466  -9.1466
    -5.0161  -5.0161  -4.6720  -4.6720  -1.2334  -1.2334  -0.6662  -0.6662
    -0.0716  -0.0716   0.1160   0.1160   0.4935   0.4935   0.7058   0.7058

          k =-0.4987 0.0000-0.7239 ( 24376 PWs)   bands (ev):

   -23.8546 -23.8546  -9.5956  -9.5956  -9.1562  -9.1562  -9.1221  -9.1221
    -4.9445  -4.9445  -4.5194  -4.5194  -1.7905  -1.7905  -0.3493  -0.3493
    -0.0303  -0.0303   0.1226   0.1226   0.6041   0.6041   0.6154   0.6154

          k =-0.4987 0.2438 0.0000 ( 24286 PWs)   bands (ev):

   -23.8682 -23.8682  -9.3906  -9.3906  -9.1491  -9.1491  -9.0352  -9.0352
    -5.3763  -5.3763  -4.5633  -4.5633  -1.0047  -1.0047  -0.3155  -0.3155
    -0.1446  -0.1446   0.0427   0.0427   0.4055   0.4055   0.5755   0.5755

          k =-0.4987 0.2438 0.3620 ( 24334 PWs)   bands (ev):

   -23.8614 -23.8614  -9.3687  -9.3687  -9.2667  -9.2667  -9.1157  -9.1157
    -4.9744  -4.9744  -4.7189  -4.7189  -1.2395  -1.2395  -0.6457  -0.6457
    -0.0308  -0.0308   0.1582   0.1582   0.4917   0.4917   0.6394   0.6394

          k =-0.4987 0.2438-0.7239 ( 24372 PWs)   bands (ev):

   -23.8546 -23.8546  -9.5750  -9.5750  -9.1736  -9.1736  -9.1326  -9.1326
    -4.9563  -4.9563  -4.4995  -4.4995  -1.6878  -1.6878  -0.5664  -0.5664
     0.0156   0.0156   0.1951   0.1951   0.5403   0.5403   0.6862   0.6862

          k =-0.4987-0.4876 0.0000 ( 24292 PWs)   bands (ev):

   -23.8682 -23.8682  -9.4373  -9.4373  -9.0981  -9.0981  -9.0348  -9.0348
    -5.3437  -5.3437  -4.6254  -4.6254  -0.8603  -0.8603  -0.4646  -0.4646
    -0.2457  -0.2457   0.2269   0.2269   0.4317   0.4317   0.5287   0.5287

          k =-0.4987-0.4876 0.3620 ( 24356 PWs)   bands (ev):

   -23.8614 -23.8614  -9.3413  -9.3413  -9.3142  -9.3142  -9.0974  -9.0974
    -4.9079  -4.9079  -4.7904  -4.7904  -1.2289  -1.2289  -0.6871  -0.6871
     0.1039   0.1039   0.2662   0.2662   0.3890   0.3890   0.5583   0.5583

          k =-0.4987-0.4876-0.7239 ( 24344 PWs)   bands (ev):

   -23.8545 -23.8545  -9.5518  -9.5518  -9.1973  -9.1973  -9.1396  -9.1396
    -4.9680  -4.9680  -4.4797  -4.4797  -1.5295  -1.5295  -0.8619  -0.8619
     0.2190   0.2190   0.2905   0.2905   0.4124   0.4124   0.6577   0.6577

     highest occupied level (ev):     0.8010

!    total energy              =    -156.47478212 Ry
     estimated scf accuracy    <          3.0E-13 Ry

     The total energy is the sum of the following terms:
     one-electron contribution =     -22.49311047 Ry
     hartree contribution      =      25.63741402 Ry
     xc contribution           =     -49.12879917 Ry
     ewald contribution        =    -110.49028650 Ry

     convergence has been achieved in   3 iterations

     Forces acting on atoms (cartesian axes, Ry/au):

     atom    1 type  2   force =     0.00000000    0.00000000   -0.00000373
     atom    2 type  2   force =     0.00000000    0.00000000    0.00000373
     atom    3 type  1   force =    -0.00000445    0.00000160   -0.00000388
     atom    4 type  1   force =     0.00000445   -0.00000160   -0.00000388
     atom    5 type  1   force =    -0.00000445   -0.00000160    0.00000388
     atom    6 type  1   force =     0.00000445    0.00000160    0.00000388
     atom    7 type  3   force =    -0.00000247   -0.00000218    0.00000083
     atom    8 type  3   force =     0.00000247    0.00000218    0.00000083
     atom    9 type  3   force =    -0.00000247    0.00000218   -0.00000083
     atom   10 type  3   force =     0.00000247   -0.00000218   -0.00000083
     atom   11 type  3   force =    -0.00001201    0.00000749    0.00000744
     atom   12 type  3   force =     0.00001201   -0.00000749    0.00000744
     atom   13 type  3   force =    -0.00001201   -0.00000749   -0.00000744
     atom   14 type  3   force =     0.00001201    0.00000749   -0.00000744
     atom   15 type  3   force =    -0.00000082   -0.00000393    0.00000108
     atom   16 type  3   force =     0.00000082    0.00000393    0.00000108
     atom   17 type  3   force =    -0.00000082    0.00000393   -0.00000108
     atom   18 type  3   force =     0.00000082   -0.00000393   -0.00000108
     atom   19 type  3   force =     0.00000155   -0.00000514   -0.00000499
     atom   20 type  3   force =    -0.00000155    0.00000514   -0.00000499
     atom   21 type  3   force =     0.00000155    0.00000514    0.00000499
     atom   22 type  3   force =    -0.00000155   -0.00000514    0.00000499

     Total force =     0.000039     Total SCF correction =     0.000000


     Computing stress (Cartesian axis) and pressure

          total   stress  (Ry/bohr**3)                   (kbar)     P=       -1.62
  -0.00001098   0.00000000   0.00000000           -1.62        0.00        0.00
   0.00000000  -0.00001109   0.00000000            0.00       -1.63        0.00
   0.00000000   0.00000000  -0.00001099            0.00        0.00       -1.62

     Volume is kept fixed: isostatic pressure set to zero
     Message from routine bfgs:
     history already reset at previous step: exiting
     Energy error            =      2.0E-09 Ry
     Gradient error          =      1.2E-05 Ry/Bohr
     Cell gradient error     =      9.9E-03 kbar
ibrav =      8
 celldm(1) =     12.69438629
 celldm(2) =      1.02270339
 celldm(3) =      0.68889253
Input lattice vectors:
     1.00262679     0.00000000     0.00000000
     0.00000000     1.02538983     0.00000000
     0.00000000     0.00000000     0.69070211
New lattice vectors in INITIAL alat:
     1.00262679     0.00000000     0.00000000
     0.00000000     1.02538983     0.00000000
     0.00000000     0.00000000     0.69070211
New lattice vectors in NEW alat (for information only):
     1.00000000     0.00000000     0.00000000
     0.00000000     1.02270339     0.00000000
     0.00000000     0.00000000     0.68889253
Discrepancy in bohr =     0.000000    0.000000    0.000000

     bfgs failed after  47 scf cycles and  46 bfgs steps, convergence not achieved
     (criteria: energy <  1.0E-05 Ry, force <  1.0E-05 Ry/Bohr, cell <  5.0E-01 kbar)

     End of BFGS Geometry Optimization

     Final enthalpy           =    -156.4747821240 Ry

     File ./pwscf.bfgs deleted, as requested
Begin final coordinates
     new unit-cell volume =   1441.23999 a.u.^3 (   213.56973 Ang^3 )
     density =      2.59710 g/cm^3

CELL_PARAMETERS (alat= 12.66112811)
   1.002626795   0.000000000   0.000000000
   0.000000000   1.025389825   0.000000000
   0.000000000   0.000000000   0.690702113

ATOMIC_POSITIONS (crystal)
Ba               0.5000000000        0.5000000000        0.5000137701
Ba               0.0000000000        0.0000000000        0.9999862299
B                0.6118030390        0.2403250050        0.0000041767
B                0.3881969610        0.7596749950        0.0000041767
B                0.1118030390        0.2596749950        0.4999958233
B                0.8881969610        0.7403250050        0.4999958233
H                0.4362181902        0.2917733522        0.0000126471
H                0.5637818098        0.7082266478        0.0000126471
H                0.9362181902        0.2082266478        0.4999873529
H                0.0637818098        0.7917733522        0.4999873529
H                0.7217665786        0.3850763229       -0.0000138146
H                0.2782334214        0.6149236771       -0.0000138146
H                0.2217665786        0.1149236771        0.5000138146
H                0.7782334214        0.8850763229        0.5000138146
H                0.6414650867        0.1436997665        0.7806229466
H                0.3585349133        0.8563002335        0.7806229466
H                0.1414650867        0.3563002335        0.7193770534
H                0.8585349133        0.6436997665        0.7193770534
H                0.3585198315        0.8563046605        0.2193780331
H                0.6414801685        0.1436953395        0.2193780331
H                0.8585198315        0.6436953395        0.2806219669
H                0.1414801685        0.3563046605        0.2806219669
End final coordinates



     Writing config-only to output data dir ./pwscf.save/ :
     XML data file

     Writing all to output data dir ./pwscf.save/ :
     XML data file, charge density, pseudopotentials, collected wavefunctions

     init_run     :      4.19s CPU      4.39s WALL (       1 calls)
     electrons    :   2280.18s CPU   2349.62s WALL (      47 calls)
     update_pot   :      4.35s CPU      4.85s WALL (      46 calls)
     forces       :     82.13s CPU     83.89s WALL (      47 calls)
     stress       :    298.09s CPU    299.37s WALL (      47 calls)

     Called by init_run:
     wfcinit      :      3.29s CPU      3.41s WALL (       1 calls)
     potinit      :      0.25s CPU      0.26s WALL (       1 calls)
     hinit0       :      0.45s CPU      0.49s WALL (       1 calls)

     Called by electrons:
     c_bands      :   1964.68s CPU   2021.17s WALL (     325 calls)
     sum_band     :    271.68s CPU    282.70s WALL (     325 calls)
     v_of_rho     :     18.93s CPU     19.90s WALL (     327 calls)
     newd         :     27.03s CPU     27.77s WALL (     327 calls)
     mix_rho      :      1.91s CPU      2.04s WALL (     325 calls)

     Called by c_bands:
     init_us_2    :     53.58s CPU     54.03s WALL (   20115 calls)
     cegterg      :   1868.48s CPU   1924.55s WALL (    8775 calls)

     Called by *egterg:
     cdiaghg      :     22.41s CPU     22.51s WALL (   31397 calls)
     h_psi        :   1212.50s CPU   1267.61s WALL (   33881 calls)
     s_psi        :    288.02s CPU    288.50s WALL (   33881 calls)
     g_psi        :      5.82s CPU      5.84s WALL (   25079 calls)

     Called by h_psi:
     h_psi:calbec :    297.49s CPU    303.91s WALL (   33881 calls)
     vloc_psi     :    626.19s CPU    674.40s WALL (   33881 calls)
     add_vuspsi   :    285.70s CPU    286.31s WALL (   33881 calls)

     General routines
     calbec       :    470.03s CPU    479.02s WALL (   49001 calls)
     fft          :     12.50s CPU     13.56s WALL (    5423 calls)
     ffts         :      0.70s CPU      0.75s WALL (     652 calls)
     fftw         :    636.81s CPU    686.07s WALL ( 1450976 calls)
     interpolate  :      1.31s CPU      1.42s WALL (     327 calls)
     davcio       :      0.00s CPU      0.05s WALL (      27 calls)

     Parallel routines

     PWSCF        :  44m34.25s CPU  45m48.31s WALL


   This run was terminated on:  15: 3:32  12Jul2024            

=------------------------------------------------------------------------------=
   JOB DONE.
=------------------------------------------------------------------------------=
