
     Program PHONON v.7.3.1 starts on 12Jul2024 at 12:20:37 

     This program is part of the open-source Quantum ESPRESSO suite
     for quantum simulation of materials; please cite
         "P. Giannozzi et al., J. Phys.:Condens. Matter 21 395502 (2009);
         "P. Giannozzi et al., J. Phys.:Condens. Matter 29 465901 (2017);
         "P. Giannozzi et al., J. Chem. Phys. 152 154105 (2020);
          URL http://www.quantum-espresso.org", 
     in publications or presentations arising from this work. More details at
     http://www.quantum-espresso.org/quote

     Parallel version (MPI), running on    24 processors

     MPI processes distributed on     1 nodes
     93905 MiB available memory on the printing compute node when the environment starts

     Waiting for input...
     Reading input from standard input

     Reading xml data from directory:

     ./pwscf.save/

     R & G space division:  proc/nbgrp/npool/nimage =      24
     Subspace diagonalization in iterative solution of the eigenvalue problem:
     a serial algorithm will be used


     IMPORTANT: XC functional enforced from input :
     Exchange-correlation= PBESOL
                           (   1   4  10   8   0   0   0)
     Any further DFT definition will be discarded
     Please, verify this is what you really want


     Parallelization info
     --------------------
     sticks:   dense  smooth     PW     G-vecs:    dense   smooth      PW
     Min         431     215     57                22601     7991    1121
     Max         432     217     58                22604     7992    1124
     Sum       10361    5183   1391               542467   191793   26947

     Using Slab Decomposition

     Reading collected, re-writing distributed wavefunctions in ./


     Dynamical matrices for ( 3, 3, 3)  uniform grid of q-points
     (   8 q-points):
       N         xq(1)         xq(2)         xq(3) 
       1   0.000000000   0.000000000   0.000000000
       2   0.000000000   0.000000000   0.480316332
       3   0.000000000   0.324592281   0.000000000
       4   0.000000000   0.324592281   0.480316332
       5   0.333333333   0.000000000   0.000000000
       6   0.333333333   0.000000000   0.480316332
       7   0.333333333   0.324592281   0.000000000
       8   0.333333333   0.324592281   0.480316332

     Number and degeneracy of irreps per q-point
       N         xq(1)         xq(2)         xq(3)   N irreps
       1   0.000000000   0.000000000   0.000000000      66
     No degeneracy
Eigenvectors exchange needed   25   57
       2   0.000000000   0.000000000   0.480316332      65
        1   1   1   1   1   1   1   1   1   1   1   1   1   1   1   1   1   1
   1   1   1   1   1   1   2   1   1   1   1   1   1   1   1   1   1   1
   1   1   1   1   1   1   1   1   1   1   1   1   1   1   1   1   1   1
   1   1   1   1   1   1   1   1   1   1   1
       3   0.000000000   0.324592281   0.000000000      66
     No degeneracy
       4   0.000000000   0.324592281   0.480316332      66
     No degeneracy
       5   0.333333333   0.000000000   0.000000000      66
     No degeneracy
       6   0.333333333   0.000000000   0.480316332      66
     No degeneracy
       7   0.333333333   0.324592281   0.000000000      66
     No degeneracy
       8   0.333333333   0.324592281   0.480316332      66
     No degeneracy

     Saving dvscf to file. Distribute only q points, not irreducible representations.

     Calculation of q =    0.0000000   0.0000000   0.0000000

                                                                                

     bravais-lattice index     =            8
     lattice parameter (alat)  =      12.5829  a.u.
     unit-cell volume          =    1419.8354 (a.u.)^3
     number of atoms/cell      =           22
     number of atomic types    =            3
     kinetic-energy cut-off    =     100.0000  Ry
     charge density cut-off    =     800.0000  Ry
     convergence threshold     =      1.0E-14
     beta                      =       0.7000
     number of iterations used =            4
     Exchange-correlation= PBESOL
                           (   1   4  10   8   0   0   0)


     celldm(1)=   12.58294  celldm(2)=    1.02693  celldm(3)=    0.69399
     celldm(4)=    0.00000  celldm(5)=    0.00000  celldm(6)=    0.00000

     crystal axes: (cart. coord. in units of alat)
               a(1) = (  1.0000  0.0000  0.0000 )  
               a(2) = (  0.0000  1.0269  0.0000 )  
               a(3) = (  0.0000  0.0000  0.6940 )  

     reciprocal axes: (cart. coord. in units 2 pi/alat)
               b(1) = (  1.0000  0.0000  0.0000 )  
               b(2) = (  0.0000  0.9738  0.0000 )  
               b(3) = (  0.0000  0.0000  1.4409 )  


     Atoms inside the unit cell: 

     Cartesian axes

     site n.  atom      mass           positions (alat units)
        1  Ba    137.3270   tau(    1) = (    0.50000    0.51346    0.34699  )
        2  Ba    137.3270   tau(    2) = (    0.00000    0.00000    0.69399  )
        3  B      10.8110   tau(    3) = (    0.60950    0.24509   -0.00000  )
        4  B      10.8110   tau(    4) = (    0.39050    0.78184   -0.00000  )
        5  B      10.8110   tau(    5) = (    0.10950    0.26837    0.34700  )
        6  B      10.8110   tau(    6) = (    0.89050    0.75855    0.34700  )
        7  H       1.0079   tau(    7) = (    0.43302    0.30009    0.00002  )
        8  H       1.0079   tau(    8) = (    0.56698    0.72684    0.00002  )
        9  H       1.0079   tau(    9) = (    0.93302    0.21337    0.34698  )
       10  H       1.0079   tau(   10) = (    0.06698    0.81356    0.34698  )
       11  H       1.0079   tau(   11) = (    0.72209    0.39321   -0.00001  )
       12  H       1.0079   tau(   12) = (    0.27791    0.63372   -0.00001  )
       13  H       1.0079   tau(   13) = (    0.22209    0.12025    0.34700  )
       14  H       1.0079   tau(   14) = (    0.77791    0.90668    0.34700  )
       15  H       1.0079   tau(   15) = (    0.63839    0.14512    0.54157  )
       16  H       1.0079   tau(   16) = (    0.36161    0.88181    0.54157  )
       17  H       1.0079   tau(   17) = (    0.13839    0.36834    0.49941  )
       18  H       1.0079   tau(   18) = (    0.86161    0.65859    0.49941  )
       19  H       1.0079   tau(   19) = (    0.36158    0.88181    0.15241  )
       20  H       1.0079   tau(   20) = (    0.63842    0.14512    0.15241  )
       21  H       1.0079   tau(   21) = (    0.86158    0.65859    0.19458  )
       22  H       1.0079   tau(   22) = (    0.13842    0.36834    0.19458  )

     Computing dynamical matrix for 
                    q = (   0.0000000   0.0000000   0.0000000 )

      5 Sym.Ops. (with q -> -q+G )


     G cutoff = 3208.4427  (  22604 G-vectors)     FFT grid: (120,120, 80)
     G cutoff = 1604.2214  (   7992 G-vectors)  smooth grid: ( 90, 90, 60)
     number of k points=    27

     PseudoPot. # 1 for B  read from file:
     /home/mehlhorn/pseudos/b_pbesol_v1.4.uspp.F.UPF
     MD5 check sum: 369b69bef2c3aeed4453bd8b804fd6a8
     Pseudo is Ultrasoft + core correction, Zval =  3.0
     Generated by new atomic code, or converted to UPF format
     Using radial grid of  781 points,  4 beta functions with: 
                l(1) =   0
                l(2) =   0
                l(3) =   1
                l(4) =   1
     Q(r) pseudized with  8 coefficients,  rinner =    1.100   1.100   1.100


     PseudoPot. # 2 for Ba read from file:
     /home/mehlhorn/pseudos/Ba.nc.z_10.oncvpsp4.dojo.v4-sp.upf
     MD5 check sum: c10ed334bb677c0554edec7181ce9143
     Pseudo is Norm-conserving + core correction, Zval = 10.0
     Generated using ONCVPSP code by D. R. Hamann
     Using radial grid of 1938 points,  8 beta functions with: 
                l(1) =   0
                l(2) =   0
                l(3) =   1
                l(4) =   1
                l(5) =   2
                l(6) =   2
                l(7) =   3
                l(8) =   3

     PseudoPot. # 3 for H  read from file:
     /home/mehlhorn/pseudos/H_ONCV_PBEsol-1.0.upf
     MD5 check sum: 398ef8f67c0a7342c05c87c5e19ea467
     Pseudo is Norm-conserving, Zval =  1.0
     Generated using ONCVPSP code by D. R. Hamann
     Using radial grid of 1180 points,  2 beta functions with: 
                l(1) =   0
                l(2) =   0

     Mode symmetry, D_2  (222)  point group:


     Electric field:
     Dielectric constant
     Born effective charges in two ways 


     Atomic displacements:
     There are   66 irreducible representations

     Representation     1      1 modes -  To be done

     Representation     2      1 modes -  To be done

     Representation     3      1 modes -  To be done

     Representation     4      1 modes -  To be done

     Representation     5      1 modes -  To be done

     Representation     6      1 modes -  To be done

     Representation     7      1 modes -  To be done

     Representation     8      1 modes -  To be done

     Representation     9      1 modes -  To be done

     Representation    10      1 modes -  To be done

     Representation    11      1 modes -  To be done

     Representation    12      1 modes -  To be done

     Representation    13      1 modes -  To be done

     Representation    14      1 modes -  To be done

     Representation    15      1 modes -  To be done

     Representation    16      1 modes -  To be done

     Representation    17      1 modes -  To be done

     Representation    18      1 modes -  To be done

     Representation    19      1 modes -  To be done

     Representation    20      1 modes -  To be done

     Representation    21      1 modes -  To be done

     Representation    22      1 modes -  To be done

     Representation    23      1 modes -  To be done

     Representation    24      1 modes -  To be done

     Representation    25      1 modes -  To be done

     Representation    26      1 modes -  To be done

     Representation    27      1 modes -  To be done

     Representation    28      1 modes -  To be done

     Representation    29      1 modes -  To be done

     Representation    30      1 modes -  To be done

     Representation    31      1 modes -  To be done

     Representation    32      1 modes -  To be done

     Representation    33      1 modes -  To be done

     Representation    34      1 modes -  To be done

     Representation    35      1 modes -  To be done

     Representation    36      1 modes -  To be done

     Representation    37      1 modes -  To be done

     Representation    38      1 modes -  To be done

     Representation    39      1 modes -  To be done

     Representation    40      1 modes -  To be done

     Representation    41      1 modes -  To be done

     Representation    42      1 modes -  To be done

     Representation    43      1 modes -  To be done

     Representation    44      1 modes -  To be done

     Representation    45      1 modes -  To be done

     Representation    46      1 modes -  To be done

     Representation    47      1 modes -  To be done

     Representation    48      1 modes -  To be done

     Representation    49      1 modes -  To be done

     Representation    50      1 modes -  To be done

     Representation    51      1 modes -  To be done

     Representation    52      1 modes -  To be done

     Representation    53      1 modes -  To be done

     Representation    54      1 modes -  To be done

     Representation    55      1 modes -  To be done

     Representation    56      1 modes -  To be done

     Representation    57      1 modes -  To be done

     Representation    58      1 modes -  To be done

     Representation    59      1 modes -  To be done

     Representation    60      1 modes -  To be done

     Representation    61      1 modes -  To be done

     Representation    62      1 modes -  To be done

     Representation    63      1 modes -  To be done

     Representation    64      1 modes -  To be done

     Representation    65      1 modes -  To be done

     Representation    66      1 modes -  To be done



     Alpha used in Ewald sum =   2.8000
     PHONON       :   3m17.33s CPU   3m21.27s WALL


     Electric Fields Calculation

      iter #   1 total cpu time :   818.0 secs   av.it.:   7.6
      thresh= 1.000E-02 alpha_mix =  0.700 |ddv_scf|^2 =  5.882E-09

      iter #   2 total cpu time :  1081.2 secs   av.it.:  16.9
      thresh= 7.669E-06 alpha_mix =  0.700 |ddv_scf|^2 =  9.649E-10

      iter #   3 total cpu time :  1330.9 secs   av.it.:  16.0
      thresh= 3.106E-06 alpha_mix =  0.700 |ddv_scf|^2 =  7.213E-11

      iter #   4 total cpu time :  1575.0 secs   av.it.:  15.7
      thresh= 8.493E-07 alpha_mix =  0.700 |ddv_scf|^2 =  1.007E-11

      iter #   5 total cpu time :  1821.0 secs   av.it.:  15.6
      thresh= 3.173E-07 alpha_mix =  0.700 |ddv_scf|^2 =  9.550E-13

      iter #   6 total cpu time :  2079.6 secs   av.it.:  15.7
      thresh= 9.772E-08 alpha_mix =  0.700 |ddv_scf|^2 =  2.332E-14

      iter #   7 total cpu time :  2345.8 secs   av.it.:  16.0
      thresh= 1.527E-08 alpha_mix =  0.700 |ddv_scf|^2 =  3.225E-15

     End of electric fields calculation

          Dielectric constant in cartesian axis 

          (       3.132102138       0.000000000       0.000000000 )
          (       0.000000000       3.191477562       0.000000000 )
          (       0.000000000       0.000000000       3.325795288 )

          Effective charges (d Force / dE) in cartesian axis without acoustic sum rule applied (asr)

           atom    1  Ba    Mean Z*:        2.65611
      Ex  (        2.49686       -0.04541        0.00000 )
      Ey  (        0.28694        2.51593        0.00000 )
      Ez  (       -0.00000        0.00000        2.95553 )
           atom    2  Ba    Mean Z*:        2.65611
      Ex  (        2.49686        0.04541        0.00000 )
      Ey  (       -0.28694        2.51593        0.00000 )
      Ez  (        0.00000        0.00000        2.95553 )
           atom    3  B     Mean Z*:       -0.13051
      Ex  (       -0.14756        0.03219        0.00002 )
      Ey  (        0.17487       -0.04248       -0.00003 )
      Ez  (       -0.00001       -0.00000       -0.20150 )
           atom    4  B     Mean Z*:       -0.13051
      Ex  (       -0.14756        0.03219       -0.00002 )
      Ey  (        0.17487       -0.04248        0.00003 )
      Ez  (        0.00001        0.00000       -0.20150 )
           atom    5  B     Mean Z*:       -0.13051
      Ex  (       -0.14756       -0.03219       -0.00002 )
      Ey  (       -0.17487       -0.04248       -0.00003 )
      Ez  (        0.00001       -0.00000       -0.20150 )
           atom    6  B     Mean Z*:       -0.13051
      Ex  (       -0.14756       -0.03219        0.00002 )
      Ey  (       -0.17487       -0.04248        0.00003 )
      Ez  (       -0.00001        0.00000       -0.20150 )
           atom    7  H     Mean Z*:       -0.30885
      Ex  (       -0.42840        0.13647        0.00003 )
      Ey  (        0.14342       -0.25066       -0.00003 )
      Ez  (        0.00003       -0.00003       -0.24749 )
           atom    8  H     Mean Z*:       -0.30885
      Ex  (       -0.42840        0.13647       -0.00003 )
      Ey  (        0.14342       -0.25066        0.00003 )
      Ez  (       -0.00003        0.00003       -0.24749 )
           atom    9  H     Mean Z*:       -0.30885
      Ex  (       -0.42840       -0.13647       -0.00003 )
      Ey  (       -0.14342       -0.25066       -0.00003 )
      Ez  (       -0.00003       -0.00003       -0.24749 )
           atom   10  H     Mean Z*:       -0.30885
      Ex  (       -0.42840       -0.13647        0.00003 )
      Ey  (       -0.14342       -0.25066        0.00003 )
      Ez  (        0.00003        0.00003       -0.24749 )
           atom   11  H     Mean Z*:       -0.31378
      Ex  (       -0.26855       -0.04201       -0.00000 )
      Ey  (       -0.11273       -0.42941        0.00001 )
      Ez  (        0.00001        0.00001       -0.24339 )
           atom   12  H     Mean Z*:       -0.31378
      Ex  (       -0.26855       -0.04201        0.00000 )
      Ey  (       -0.11273       -0.42941       -0.00001 )
      Ez  (       -0.00001       -0.00001       -0.24339 )
           atom   13  H     Mean Z*:       -0.31378
      Ex  (       -0.26855        0.04201        0.00000 )
      Ey  (        0.11273       -0.42941        0.00001 )
      Ez  (       -0.00001        0.00001       -0.24339 )
           atom   14  H     Mean Z*:       -0.31378
      Ex  (       -0.26855        0.04201       -0.00000 )
      Ey  (        0.11273       -0.42941       -0.00001 )
      Ez  (        0.00001       -0.00001       -0.24339 )
           atom   15  H     Mean Z*:       -0.28723
      Ex  (       -0.20208        0.14608        0.05997 )
      Ey  (        0.09754       -0.26713       -0.09409 )
      Ez  (        0.02060       -0.11180       -0.39250 )
           atom   16  H     Mean Z*:       -0.28723
      Ex  (       -0.20208        0.14608       -0.05997 )
      Ey  (        0.09754       -0.26713        0.09409 )
      Ez  (       -0.02060        0.11180       -0.39250 )
           atom   17  H     Mean Z*:       -0.28723
      Ex  (       -0.20208       -0.14608       -0.05997 )
      Ey  (       -0.09754       -0.26713       -0.09409 )
      Ez  (       -0.02060       -0.11180       -0.39250 )
           atom   18  H     Mean Z*:       -0.28723
      Ex  (       -0.20208       -0.14608        0.05997 )
      Ey  (       -0.09754       -0.26713        0.09409 )
      Ez  (        0.02060        0.11180       -0.39250 )
           atom   19  H     Mean Z*:       -0.28726
      Ex  (       -0.20214        0.14613        0.06004 )
      Ey  (        0.09759       -0.26716       -0.09410 )
      Ez  (        0.02064       -0.11180       -0.39248 )
           atom   20  H     Mean Z*:       -0.28726
      Ex  (       -0.20214        0.14613       -0.06004 )
      Ey  (        0.09759       -0.26716        0.09410 )
      Ez  (       -0.02064        0.11180       -0.39248 )
           atom   21  H     Mean Z*:       -0.28726
      Ex  (       -0.20214       -0.14613       -0.06004 )
      Ey  (       -0.09759       -0.26716       -0.09410 )
      Ez  (       -0.02064       -0.11180       -0.39248 )
           atom   22  H     Mean Z*:       -0.28726
      Ex  (       -0.20214       -0.14613        0.06004 )
      Ey  (       -0.09759       -0.26716        0.09410 )
      Ez  (        0.02064        0.11180       -0.39248 )

          Effective charges Sum: Mean:        0.00165
             -0.00117        0.00000       -0.00000
              0.00000        0.00454        0.00000
              0.00000       -0.00000        0.00159

          Effective charges (d Force / dE) in cartesian axis with asr applied: 
           atom    1  Ba    Mean Z*:        2.65603
      E*x (        2.49691       -0.04541       -0.00000 )
      E*y (        0.28694        2.51572        0.00000 )
      E*z (       -0.00000        0.00000        2.95546 )
           atom    2  Ba    Mean Z*:        2.65603
      E*x (        2.49691        0.04541       -0.00000 )
      E*y (       -0.28694        2.51572        0.00000 )
      E*z (        0.00000        0.00000        2.95546 )
           atom    3  B     Mean Z*:       -0.13059
      E*x (       -0.14751        0.03219        0.00002 )
      E*y (        0.17487       -0.04268       -0.00003 )
      E*z (       -0.00001       -0.00000       -0.20158 )
           atom    4  B     Mean Z*:       -0.13059
      E*x (       -0.14751        0.03219       -0.00002 )
      E*y (        0.17487       -0.04268        0.00003 )
      E*z (        0.00001        0.00000       -0.20158 )
           atom    5  B     Mean Z*:       -0.13059
      E*x (       -0.14751       -0.03219       -0.00002 )
      E*y (       -0.17487       -0.04268       -0.00003 )
      E*z (        0.00001       -0.00000       -0.20158 )
           atom    6  B     Mean Z*:       -0.13059
      E*x (       -0.14751       -0.03219        0.00002 )
      E*y (       -0.17487       -0.04268        0.00003 )
      E*z (       -0.00001        0.00000       -0.20158 )
           atom    7  H     Mean Z*:       -0.30892
      E*x (       -0.42835        0.13647        0.00003 )
      E*y (        0.14342       -0.25086       -0.00003 )
      E*z (        0.00003       -0.00003       -0.24756 )
           atom    8  H     Mean Z*:       -0.30892
      E*x (       -0.42835        0.13647       -0.00003 )
      E*y (        0.14342       -0.25086        0.00003 )
      E*z (       -0.00003        0.00003       -0.24756 )
           atom    9  H     Mean Z*:       -0.30892
      E*x (       -0.42835       -0.13647       -0.00003 )
      E*y (       -0.14342       -0.25086       -0.00003 )
      E*z (       -0.00003       -0.00003       -0.24756 )
           atom   10  H     Mean Z*:       -0.30892
      E*x (       -0.42835       -0.13647        0.00003 )
      E*y (       -0.14342       -0.25086        0.00003 )
      E*z (        0.00003        0.00003       -0.24756 )
           atom   11  H     Mean Z*:       -0.31386
      E*x (       -0.26849       -0.04201       -0.00000 )
      E*y (       -0.11273       -0.42962        0.00001 )
      E*z (        0.00001        0.00001       -0.24347 )
           atom   12  H     Mean Z*:       -0.31386
      E*x (       -0.26849       -0.04201        0.00000 )
      E*y (       -0.11273       -0.42962       -0.00001 )
      E*z (       -0.00001       -0.00001       -0.24347 )
           atom   13  H     Mean Z*:       -0.31386
      E*x (       -0.26849        0.04201        0.00000 )
      E*y (        0.11273       -0.42962        0.00001 )
      E*z (       -0.00001        0.00001       -0.24347 )
           atom   14  H     Mean Z*:       -0.31386
      E*x (       -0.26849        0.04201       -0.00000 )
      E*y (        0.11273       -0.42962       -0.00001 )
      E*z (        0.00001       -0.00001       -0.24347 )
           atom   15  H     Mean Z*:       -0.28731
      E*x (       -0.20202        0.14608        0.05997 )
      E*y (        0.09754       -0.26733       -0.09409 )
      E*z (        0.02060       -0.11180       -0.39257 )
           atom   16  H     Mean Z*:       -0.28731
      E*x (       -0.20202        0.14608       -0.05997 )
      E*y (        0.09754       -0.26733        0.09409 )
      E*z (       -0.02060        0.11180       -0.39257 )
           atom   17  H     Mean Z*:       -0.28731
      E*x (       -0.20202       -0.14608       -0.05997 )
      E*y (       -0.09754       -0.26733       -0.09409 )
      E*z (       -0.02060       -0.11180       -0.39257 )
           atom   18  H     Mean Z*:       -0.28731
      E*x (       -0.20202       -0.14608        0.05997 )
      E*y (       -0.09754       -0.26733        0.09409 )
      E*z (        0.02060        0.11180       -0.39257 )
           atom   19  H     Mean Z*:       -0.28733
      E*x (       -0.20209        0.14613        0.06004 )
      E*y (        0.09759       -0.26736       -0.09410 )
      E*z (        0.02064       -0.11180       -0.39256 )
           atom   20  H     Mean Z*:       -0.28733
      E*x (       -0.20209        0.14613       -0.06004 )
      E*y (        0.09759       -0.26736        0.09410 )
      E*z (       -0.02064        0.11180       -0.39256 )
           atom   21  H     Mean Z*:       -0.28733
      E*x (       -0.20209       -0.14613       -0.06004 )
      E*y (       -0.09759       -0.26736       -0.09410 )
      E*z (       -0.02064       -0.11180       -0.39256 )
           atom   22  H     Mean Z*:       -0.28733
      E*x (       -0.20209       -0.14613        0.06004 )
      E*y (       -0.09759       -0.26736        0.09410 )
      E*z (        0.02064        0.11180       -0.39256 )


     Representation #   1 mode #   1

     Self-consistent Calculation

      iter #   1 total cpu time :  4771.4 secs   av.it.:   3.0
      thresh= 1.000E-02 alpha_mix =  0.700 |ddv_scf|^2 =  1.783E-09

      iter #   2 total cpu time :  4858.6 secs   av.it.:  15.5
      thresh= 4.222E-06 alpha_mix =  0.700 |ddv_scf|^2 =  3.882E-10

      iter #   3 total cpu time :  4944.4 secs   av.it.:  15.0
      thresh= 1.970E-06 alpha_mix =  0.700 |ddv_scf|^2 =  2.638E-12

      iter #   4 total cpu time :  5031.4 secs   av.it.:  15.5
      thresh= 1.624E-07 alpha_mix =  0.700 |ddv_scf|^2 =  4.813E-14

      iter #   5 total cpu time :  5121.0 secs   av.it.:  15.8
      thresh= 2.194E-08 alpha_mix =  0.700 |ddv_scf|^2 =  1.930E-15

     End of self-consistent calculation

     Convergence has been achieved 


     Representation #   2 mode #   2

     Self-consistent Calculation

      iter #   1 total cpu time :  5184.0 secs   av.it.:   3.0
      thresh= 1.000E-02 alpha_mix =  0.700 |ddv_scf|^2 =  1.427E-09

      iter #   2 total cpu time :  5273.3 secs   av.it.:  15.9
      thresh= 3.778E-06 alpha_mix =  0.700 |ddv_scf|^2 =  3.747E-10

      iter #   3 total cpu time :  5360.2 secs   av.it.:  15.3
      thresh= 1.936E-06 alpha_mix =  0.700 |ddv_scf|^2 =  3.088E-12

      iter #   4 total cpu time :  5448.7 secs   av.it.:  15.9
      thresh= 1.757E-07 alpha_mix =  0.700 |ddv_scf|^2 =  1.147E-13

      iter #   5 total cpu time :  5536.6 secs   av.it.:  15.7
      thresh= 3.386E-08 alpha_mix =  0.700 |ddv_scf|^2 =  5.057E-15

     End of self-consistent calculation

     Convergence has been achieved 


     Representation #   3 mode #   3

     Self-consistent Calculation

      iter #   1 total cpu time :  5599.4 secs   av.it.:   3.0
      thresh= 1.000E-02 alpha_mix =  0.700 |ddv_scf|^2 =  5.823E-10

      iter #   2 total cpu time :  5689.0 secs   av.it.:  15.9
      thresh= 2.413E-06 alpha_mix =  0.700 |ddv_scf|^2 =  4.812E-11

      iter #   3 total cpu time :  5778.8 secs   av.it.:  15.9
      thresh= 6.937E-07 alpha_mix =  0.700 |ddv_scf|^2 =  5.969E-12

      iter #   4 total cpu time :  5867.0 secs   av.it.:  15.7
      thresh= 2.443E-07 alpha_mix =  0.700 |ddv_scf|^2 =  9.953E-14

      iter #   5 total cpu time :  5955.3 secs   av.it.:  15.6
      thresh= 3.155E-08 alpha_mix =  0.700 |ddv_scf|^2 =  3.421E-15

     End of self-consistent calculation

     Convergence has been achieved 


     Representation #   4 mode #   4

     Self-consistent Calculation

      iter #   1 total cpu time :  6024.5 secs   av.it.:   5.0
      thresh= 1.000E-02 alpha_mix =  0.700 |ddv_scf|^2 =  1.183E-08

      iter #   2 total cpu time :  6113.6 secs   av.it.:  15.8
      thresh= 1.088E-05 alpha_mix =  0.700 |ddv_scf|^2 =  2.508E-09

      iter #   3 total cpu time :  6199.9 secs   av.it.:  15.1
      thresh= 5.008E-06 alpha_mix =  0.700 |ddv_scf|^2 =  1.985E-11

      iter #   4 total cpu time :  6288.0 secs   av.it.:  15.6
      thresh= 4.455E-07 alpha_mix =  0.700 |ddv_scf|^2 =  1.365E-12

      iter #   5 total cpu time :  6375.9 secs   av.it.:  15.6
      thresh= 1.168E-07 alpha_mix =  0.700 |ddv_scf|^2 =  1.780E-14

      iter #   6 total cpu time :  6464.4 secs   av.it.:  15.8
      thresh= 1.334E-08 alpha_mix =  0.700 |ddv_scf|^2 =  2.022E-16

     End of self-consistent calculation

     Convergence has been achieved 


     Representation #   5 mode #   5

     Self-consistent Calculation

      iter #   1 total cpu time :  6559.8 secs   av.it.:   6.6
      thresh= 1.000E-02 alpha_mix =  0.700 |ddv_scf|^2 =  5.983E-08

      iter #   2 total cpu time :  6645.7 secs   av.it.:  15.3
      thresh= 2.446E-05 alpha_mix =  0.700 |ddv_scf|^2 =  1.663E-08

      iter #   3 total cpu time :  6725.4 secs   av.it.:  14.6
      thresh= 1.289E-05 alpha_mix =  0.700 |ddv_scf|^2 =  3.241E-11

      iter #   4 total cpu time :  6806.2 secs   av.it.:  15.3
      thresh= 5.693E-07 alpha_mix =  0.700 |ddv_scf|^2 =  1.146E-12

      iter #   5 total cpu time :  6886.6 secs   av.it.:  14.7
      thresh= 1.071E-07 alpha_mix =  0.700 |ddv_scf|^2 =  1.094E-14

      iter #   6 total cpu time :  6965.9 secs   av.it.:  14.8
      thresh= 1.046E-08 alpha_mix =  0.700 |ddv_scf|^2 =  2.096E-16

     End of self-consistent calculation

     Convergence has been achieved 


     Representation #   6 mode #   6

     Self-consistent Calculation

      iter #   1 total cpu time :  7032.3 secs   av.it.:   3.1
      thresh= 1.000E-02 alpha_mix =  0.700 |ddv_scf|^2 =  1.693E-09

      iter #   2 total cpu time :  7117.3 secs   av.it.:  15.9
      thresh= 4.114E-06 alpha_mix =  0.700 |ddv_scf|^2 =  4.600E-10

      iter #   3 total cpu time :  7199.5 secs   av.it.:  15.3
      thresh= 2.145E-06 alpha_mix =  0.700 |ddv_scf|^2 =  4.291E-12

      iter #   4 total cpu time :  7285.2 secs   av.it.:  15.5
      thresh= 2.072E-07 alpha_mix =  0.700 |ddv_scf|^2 =  2.141E-13

      iter #   5 total cpu time :  7372.5 secs   av.it.:  15.5
      thresh= 4.627E-08 alpha_mix =  0.700 |ddv_scf|^2 =  4.808E-15

     End of self-consistent calculation

     Convergence has been achieved 


     Representation #   7 mode #   7

     Self-consistent Calculation

      iter #   1 total cpu time :  7434.1 secs   av.it.:   3.0
      thresh= 1.000E-02 alpha_mix =  0.700 |ddv_scf|^2 =  1.381E-09

      iter #   2 total cpu time :  7520.6 secs   av.it.:  15.4
      thresh= 3.716E-06 alpha_mix =  0.700 |ddv_scf|^2 =  1.239E-10

      iter #   3 total cpu time :  7607.0 secs   av.it.:  15.4
      thresh= 1.113E-06 alpha_mix =  0.700 |ddv_scf|^2 =  1.206E-12

      iter #   4 total cpu time :  7695.5 secs   av.it.:  15.9
      thresh= 1.098E-07 alpha_mix =  0.700 |ddv_scf|^2 =  8.573E-14

      iter #   5 total cpu time :  7784.1 secs   av.it.:  15.9
      thresh= 2.928E-08 alpha_mix =  0.700 |ddv_scf|^2 =  5.895E-15

     End of self-consistent calculation

     Convergence has been achieved 


     Representation #   8 mode #   8

     Self-consistent Calculation

      iter #   1 total cpu time :  7845.6 secs   av.it.:   3.0
      thresh= 1.000E-02 alpha_mix =  0.700 |ddv_scf|^2 =  8.622E-10

      iter #   2 total cpu time :  7933.0 secs   av.it.:  15.6
      thresh= 2.936E-06 alpha_mix =  0.700 |ddv_scf|^2 =  7.159E-11

      iter #   3 total cpu time :  8021.0 secs   av.it.:  15.8
      thresh= 8.461E-07 alpha_mix =  0.700 |ddv_scf|^2 =  2.113E-12

      iter #   4 total cpu time :  8109.5 secs   av.it.:  15.9
      thresh= 1.454E-07 alpha_mix =  0.700 |ddv_scf|^2 =  1.732E-13

      iter #   5 total cpu time :  8197.3 secs   av.it.:  15.7
      thresh= 4.162E-08 alpha_mix =  0.700 |ddv_scf|^2 =  5.749E-15

     End of self-consistent calculation

     Convergence has been achieved 


     Representation #   9 mode #   9

     Self-consistent Calculation

      iter #   1 total cpu time :  8265.8 secs   av.it.:   4.8
      thresh= 1.000E-02 alpha_mix =  0.700 |ddv_scf|^2 =  7.908E-09

      iter #   2 total cpu time :  8356.5 secs   av.it.:  16.0
      thresh= 8.892E-06 alpha_mix =  0.700 |ddv_scf|^2 =  1.183E-09

      iter #   3 total cpu time :  8444.3 secs   av.it.:  15.5
      thresh= 3.440E-06 alpha_mix =  0.700 |ddv_scf|^2 =  2.221E-11

      iter #   4 total cpu time :  8532.8 secs   av.it.:  15.8
      thresh= 4.713E-07 alpha_mix =  0.700 |ddv_scf|^2 =  1.601E-12

      iter #   5 total cpu time :  8621.3 secs   av.it.:  15.8
      thresh= 1.265E-07 alpha_mix =  0.700 |ddv_scf|^2 =  2.993E-14

      iter #   6 total cpu time :  8710.1 secs   av.it.:  15.9
      thresh= 1.730E-08 alpha_mix =  0.700 |ddv_scf|^2 =  2.261E-16

     End of self-consistent calculation

     Convergence has been achieved 


     Representation #  10 mode #  10

     Self-consistent Calculation

      iter #   1 total cpu time :  8789.1 secs   av.it.:   3.0
      thresh= 1.000E-02 alpha_mix =  0.700 |ddv_scf|^2 =  1.075E-09

      iter #   2 total cpu time :  8878.7 secs   av.it.:  15.9
      thresh= 3.279E-06 alpha_mix =  0.700 |ddv_scf|^2 =  1.101E-10

      iter #   3 total cpu time :  8968.6 secs   av.it.:  15.9
      thresh= 1.049E-06 alpha_mix =  0.700 |ddv_scf|^2 =  4.070E-12

      iter #   4 total cpu time :  9060.3 secs   av.it.:  15.9
      thresh= 2.017E-07 alpha_mix =  0.700 |ddv_scf|^2 =  1.713E-13

      iter #   5 total cpu time :  9149.3 secs   av.it.:  15.8
      thresh= 4.139E-08 alpha_mix =  0.700 |ddv_scf|^2 =  6.387E-15

     End of self-consistent calculation

     Convergence has been achieved 


     Representation #  11 mode #  11

     Self-consistent Calculation

      iter #   1 total cpu time :  9212.4 secs   av.it.:   3.0
      thresh= 1.000E-02 alpha_mix =  0.700 |ddv_scf|^2 =  8.781E-10

      iter #   2 total cpu time :  9303.1 secs   av.it.:  15.9
      thresh= 2.963E-06 alpha_mix =  0.700 |ddv_scf|^2 =  1.589E-10

      iter #   3 total cpu time :  9391.6 secs   av.it.:  15.6
      thresh= 1.261E-06 alpha_mix =  0.700 |ddv_scf|^2 =  6.411E-12

      iter #   4 total cpu time :  9480.2 secs   av.it.:  15.7
      thresh= 2.532E-07 alpha_mix =  0.700 |ddv_scf|^2 =  1.046E-13

      iter #   5 total cpu time :  9568.5 secs   av.it.:  15.4
      thresh= 3.235E-08 alpha_mix =  0.700 |ddv_scf|^2 =  4.231E-15

     End of self-consistent calculation

     Convergence has been achieved 


     Representation #  12 mode #  12

     Self-consistent Calculation

      iter #   1 total cpu time :  9631.1 secs   av.it.:   3.0
      thresh= 1.000E-02 alpha_mix =  0.700 |ddv_scf|^2 =  8.022E-10

      iter #   2 total cpu time :  9721.4 secs   av.it.:  15.9
      thresh= 2.832E-06 alpha_mix =  0.700 |ddv_scf|^2 =  1.179E-10

      iter #   3 total cpu time :  9810.8 secs   av.it.:  15.9
      thresh= 1.086E-06 alpha_mix =  0.700 |ddv_scf|^2 =  4.306E-12

      iter #   4 total cpu time :  9900.2 secs   av.it.:  15.9
      thresh= 2.075E-07 alpha_mix =  0.700 |ddv_scf|^2 =  2.789E-13

      iter #   5 total cpu time :  9988.5 secs   av.it.:  15.4
      thresh= 5.281E-08 alpha_mix =  0.700 |ddv_scf|^2 =  5.509E-15

     End of self-consistent calculation

     Convergence has been achieved 


     Representation #  13 mode #  13

     Self-consistent Calculation

      iter #   1 total cpu time : 10052.5 secs   av.it.:   3.5
      thresh= 1.000E-02 alpha_mix =  0.700 |ddv_scf|^2 =  1.771E-09

      iter #   2 total cpu time : 10142.1 secs   av.it.:  15.8
      thresh= 4.208E-06 alpha_mix =  0.700 |ddv_scf|^2 =  5.635E-10

      iter #   3 total cpu time : 10229.3 secs   av.it.:  15.0
      thresh= 2.374E-06 alpha_mix =  0.700 |ddv_scf|^2 =  1.753E-12

      iter #   4 total cpu time : 10317.8 secs   av.it.:  15.7
      thresh= 1.324E-07 alpha_mix =  0.700 |ddv_scf|^2 =  5.578E-14

      iter #   5 total cpu time : 10405.3 secs   av.it.:  15.7
      thresh= 2.362E-08 alpha_mix =  0.700 |ddv_scf|^2 =  2.617E-15

     End of self-consistent calculation

     Convergence has been achieved 


     Representation #  14 mode #  14

     Self-consistent Calculation

      iter #   1 total cpu time : 10473.1 secs   av.it.:   4.1
      thresh= 1.000E-02 alpha_mix =  0.700 |ddv_scf|^2 =  1.013E-08

      iter #   2 total cpu time : 10560.5 secs   av.it.:  15.2
      thresh= 1.006E-05 alpha_mix =  0.700 |ddv_scf|^2 =  1.312E-09

      iter #   3 total cpu time : 10647.1 secs   av.it.:  15.0
      thresh= 3.622E-06 alpha_mix =  0.700 |ddv_scf|^2 =  1.097E-11

      iter #   4 total cpu time : 10735.6 secs   av.it.:  15.8
      thresh= 3.313E-07 alpha_mix =  0.700 |ddv_scf|^2 =  1.563E-12

      iter #   5 total cpu time : 10823.7 secs   av.it.:  15.6
      thresh= 1.250E-07 alpha_mix =  0.700 |ddv_scf|^2 =  7.369E-14

      iter #   6 total cpu time : 10910.3 secs   av.it.:  15.4
      thresh= 2.715E-08 alpha_mix =  0.700 |ddv_scf|^2 =  1.741E-16

     End of self-consistent calculation

     Convergence has been achieved 


     Representation #  15 mode #  15

     Self-consistent Calculation

      iter #   1 total cpu time : 10989.7 secs   av.it.:   3.0
      thresh= 1.000E-02 alpha_mix =  0.700 |ddv_scf|^2 =  1.603E-09

      iter #   2 total cpu time : 11077.8 secs   av.it.:  15.9
      thresh= 4.004E-06 alpha_mix =  0.700 |ddv_scf|^2 =  3.083E-10

      iter #   3 total cpu time : 11164.6 secs   av.it.:  15.6
      thresh= 1.756E-06 alpha_mix =  0.700 |ddv_scf|^2 =  3.595E-12

      iter #   4 total cpu time : 11252.6 secs   av.it.:  15.9
      thresh= 1.896E-07 alpha_mix =  0.700 |ddv_scf|^2 =  1.348E-13

      iter #   5 total cpu time : 11340.6 secs   av.it.:  15.9
      thresh= 3.671E-08 alpha_mix =  0.700 |ddv_scf|^2 =  4.974E-15

     End of self-consistent calculation

     Convergence has been achieved 


     Representation #  16 mode #  16

     Self-consistent Calculation

      iter #   1 total cpu time : 11403.9 secs   av.it.:   3.1
      thresh= 1.000E-02 alpha_mix =  0.700 |ddv_scf|^2 =  1.663E-09

      iter #   2 total cpu time : 11493.3 secs   av.it.:  15.9
      thresh= 4.078E-06 alpha_mix =  0.700 |ddv_scf|^2 =  5.388E-10

      iter #   3 total cpu time : 11579.5 secs   av.it.:  15.0
      thresh= 2.321E-06 alpha_mix =  0.700 |ddv_scf|^2 =  1.748E-12

      iter #   4 total cpu time : 11668.3 secs   av.it.:  15.9
      thresh= 1.322E-07 alpha_mix =  0.700 |ddv_scf|^2 =  4.550E-14

      iter #   5 total cpu time : 11755.6 secs   av.it.:  15.7
      thresh= 2.133E-08 alpha_mix =  0.700 |ddv_scf|^2 =  2.943E-15

     End of self-consistent calculation

     Convergence has been achieved 


     Representation #  17 mode #  17

     Self-consistent Calculation

      iter #   1 total cpu time : 11824.8 secs   av.it.:   5.0
      thresh= 1.000E-02 alpha_mix =  0.700 |ddv_scf|^2 =  1.359E-08

      iter #   2 total cpu time : 11913.0 secs   av.it.:  15.9
      thresh= 1.166E-05 alpha_mix =  0.700 |ddv_scf|^2 =  5.576E-09

      iter #   3 total cpu time : 11997.2 secs   av.it.:  14.9
      thresh= 7.467E-06 alpha_mix =  0.700 |ddv_scf|^2 =  1.027E-10

      iter #   4 total cpu time : 12083.1 secs   av.it.:  15.0
      thresh= 1.014E-06 alpha_mix =  0.700 |ddv_scf|^2 =  6.752E-12

      iter #   5 total cpu time : 12166.7 secs   av.it.:  15.1
      thresh= 2.598E-07 alpha_mix =  0.700 |ddv_scf|^2 =  5.283E-13

      iter #   6 total cpu time : 12253.4 secs   av.it.:  15.0
      thresh= 7.268E-08 alpha_mix =  0.700 |ddv_scf|^2 =  1.762E-14

      iter #   7 total cpu time : 12338.4 secs   av.it.:  15.9
      thresh= 1.327E-08 alpha_mix =  0.700 |ddv_scf|^2 =  3.357E-15

     End of self-consistent calculation

     Convergence has been achieved 


     Representation #  18 mode #  18

     Self-consistent Calculation

      iter #   1 total cpu time : 12417.4 secs   av.it.:   3.1
      thresh= 1.000E-02 alpha_mix =  0.700 |ddv_scf|^2 =  3.849E-09

      iter #   2 total cpu time : 12500.3 secs   av.it.:  15.5
      thresh= 6.204E-06 alpha_mix =  0.700 |ddv_scf|^2 =  2.268E-09

      iter #   3 total cpu time : 12583.5 secs   av.it.:  14.8
      thresh= 4.762E-06 alpha_mix =  0.700 |ddv_scf|^2 =  4.823E-12

      iter #   4 total cpu time : 12672.1 secs   av.it.:  15.8
      thresh= 2.196E-07 alpha_mix =  0.700 |ddv_scf|^2 =  1.007E-12

      iter #   5 total cpu time : 12753.6 secs   av.it.:  14.9
      thresh= 1.003E-07 alpha_mix =  0.700 |ddv_scf|^2 =  7.511E-14

      iter #   6 total cpu time : 12836.8 secs   av.it.:  15.0
      thresh= 2.741E-08 alpha_mix =  0.700 |ddv_scf|^2 =  3.318E-15

     End of self-consistent calculation

     Convergence has been achieved 


     Representation #  19 mode #  19

     Self-consistent Calculation

      iter #   1 total cpu time : 12897.7 secs   av.it.:   3.0
      thresh= 1.000E-02 alpha_mix =  0.700 |ddv_scf|^2 =  1.010E-09

      iter #   2 total cpu time : 12981.8 secs   av.it.:  15.9
      thresh= 3.178E-06 alpha_mix =  0.700 |ddv_scf|^2 =  2.193E-10

      iter #   3 total cpu time : 13065.5 secs   av.it.:  15.7
      thresh= 1.481E-06 alpha_mix =  0.700 |ddv_scf|^2 =  1.194E-11

      iter #   4 total cpu time : 13146.6 secs   av.it.:  15.0
      thresh= 3.455E-07 alpha_mix =  0.700 |ddv_scf|^2 =  5.749E-13

      iter #   5 total cpu time : 13228.2 secs   av.it.:  15.6
      thresh= 7.582E-08 alpha_mix =  0.700 |ddv_scf|^2 =  1.095E-14

      iter #   6 total cpu time : 13311.6 secs   av.it.:  15.9
      thresh= 1.046E-08 alpha_mix =  0.700 |ddv_scf|^2 =  1.765E-15

     End of self-consistent calculation

     Convergence has been achieved 


     Representation #  20 mode #  20

     Self-consistent Calculation

      iter #   1 total cpu time : 13373.9 secs   av.it.:   3.9
      thresh= 1.000E-02 alpha_mix =  0.700 |ddv_scf|^2 =  6.631E-09

      iter #   2 total cpu time : 13456.2 secs   av.it.:  15.3
      thresh= 8.143E-06 alpha_mix =  0.700 |ddv_scf|^2 =  4.264E-09

      iter #   3 total cpu time : 13534.3 secs   av.it.:  14.6
      thresh= 6.530E-06 alpha_mix =  0.700 |ddv_scf|^2 =  1.331E-11

      iter #   4 total cpu time : 13619.0 secs   av.it.:  14.9
      thresh= 3.648E-07 alpha_mix =  0.700 |ddv_scf|^2 =  1.069E-12

      iter #   5 total cpu time : 13706.2 secs   av.it.:  15.2
      thresh= 1.034E-07 alpha_mix =  0.700 |ddv_scf|^2 =  9.962E-14

      iter #   6 total cpu time : 13791.0 secs   av.it.:  14.9
      thresh= 3.156E-08 alpha_mix =  0.700 |ddv_scf|^2 =  7.251E-15

     End of self-consistent calculation

     Convergence has been achieved 


     Representation #  21 mode #  21

     Self-consistent Calculation

      iter #   1 total cpu time : 13853.9 secs   av.it.:   3.0
      thresh= 1.000E-02 alpha_mix =  0.700 |ddv_scf|^2 =  6.488E-09

      iter #   2 total cpu time : 13941.7 secs   av.it.:  15.4
      thresh= 8.055E-06 alpha_mix =  0.700 |ddv_scf|^2 =  4.442E-09

      iter #   3 total cpu time : 14025.7 secs   av.it.:  14.8
      thresh= 6.665E-06 alpha_mix =  0.700 |ddv_scf|^2 =  5.248E-12

      iter #   4 total cpu time : 14114.8 secs   av.it.:  15.9
      thresh= 2.291E-07 alpha_mix =  0.700 |ddv_scf|^2 =  1.087E-12

      iter #   5 total cpu time : 14202.5 secs   av.it.:  15.4
      thresh= 1.042E-07 alpha_mix =  0.700 |ddv_scf|^2 =  7.745E-14

      iter #   6 total cpu time : 14289.8 secs   av.it.:  15.2
      thresh= 2.783E-08 alpha_mix =  0.700 |ddv_scf|^2 =  2.898E-15

     End of self-consistent calculation

     Convergence has been achieved 


     Representation #  22 mode #  22

     Self-consistent Calculation

      iter #   1 total cpu time : 14367.1 secs   av.it.:   6.5
      thresh= 1.000E-02 alpha_mix =  0.700 |ddv_scf|^2 =  3.948E-08

      iter #   2 total cpu time : 14452.9 secs   av.it.:  15.3
      thresh= 1.987E-05 alpha_mix =  0.700 |ddv_scf|^2 =  6.247E-09

      iter #   3 total cpu time : 14537.1 secs   av.it.:  15.0
      thresh= 7.904E-06 alpha_mix =  0.700 |ddv_scf|^2 =  3.035E-11

      iter #   4 total cpu time : 14618.6 secs   av.it.:  14.9
      thresh= 5.509E-07 alpha_mix =  0.700 |ddv_scf|^2 =  2.178E-13

      iter #   5 total cpu time : 14700.6 secs   av.it.:  15.5
      thresh= 4.667E-08 alpha_mix =  0.700 |ddv_scf|^2 =  8.032E-15

     End of self-consistent calculation

     Convergence has been achieved 


     Representation #  23 mode #  23

     Self-consistent Calculation

      iter #   1 total cpu time : 14766.9 secs   av.it.:   3.0
      thresh= 1.000E-02 alpha_mix =  0.700 |ddv_scf|^2 =  4.310E-09

      iter #   2 total cpu time : 14847.0 secs   av.it.:  15.0
      thresh= 6.565E-06 alpha_mix =  0.700 |ddv_scf|^2 =  2.195E-09

      iter #   3 total cpu time : 14925.4 secs   av.it.:  14.6
      thresh= 4.685E-06 alpha_mix =  0.700 |ddv_scf|^2 =  1.832E-11

      iter #   4 total cpu time : 15010.7 secs   av.it.:  15.0
      thresh= 4.280E-07 alpha_mix =  0.700 |ddv_scf|^2 =  1.467E-12

      iter #   5 total cpu time : 15096.0 secs   av.it.:  14.9
      thresh= 1.211E-07 alpha_mix =  0.700 |ddv_scf|^2 =  2.799E-14

      iter #   6 total cpu time : 15184.7 secs   av.it.:  15.8
      thresh= 1.673E-08 alpha_mix =  0.700 |ddv_scf|^2 =  4.923E-15

     End of self-consistent calculation

     Convergence has been achieved 


     Representation #  24 mode #  24

     Self-consistent Calculation

      iter #   1 total cpu time : 15246.1 secs   av.it.:   3.0
      thresh= 1.000E-02 alpha_mix =  0.700 |ddv_scf|^2 =  7.063E-10

      iter #   2 total cpu time : 15334.6 secs   av.it.:  15.7
      thresh= 2.658E-06 alpha_mix =  0.700 |ddv_scf|^2 =  9.668E-11

      iter #   3 total cpu time : 15422.5 secs   av.it.:  15.5
      thresh= 9.832E-07 alpha_mix =  0.700 |ddv_scf|^2 =  1.007E-11

      iter #   4 total cpu time : 15507.8 secs   av.it.:  14.9
      thresh= 3.174E-07 alpha_mix =  0.700 |ddv_scf|^2 =  7.124E-13

      iter #   5 total cpu time : 15594.0 secs   av.it.:  15.0
      thresh= 8.440E-08 alpha_mix =  0.700 |ddv_scf|^2 =  1.256E-14

      iter #   6 total cpu time : 15681.7 secs   av.it.:  15.3
      thresh= 1.121E-08 alpha_mix =  0.700 |ddv_scf|^2 =  1.432E-15

     End of self-consistent calculation

     Convergence has been achieved 


     Representation #  25 mode #  25

     Self-consistent Calculation

      iter #   1 total cpu time : 15744.9 secs   av.it.:   3.1
      thresh= 1.000E-02 alpha_mix =  0.700 |ddv_scf|^2 =  5.246E-09

      iter #   2 total cpu time : 15833.7 secs   av.it.:  15.7
      thresh= 7.243E-06 alpha_mix =  0.700 |ddv_scf|^2 =  2.962E-09

      iter #   3 total cpu time : 15916.1 secs   av.it.:  14.9
      thresh= 5.443E-06 alpha_mix =  0.700 |ddv_scf|^2 =  1.946E-11

      iter #   4 total cpu time : 16002.7 secs   av.it.:  15.0
      thresh= 4.412E-07 alpha_mix =  0.700 |ddv_scf|^2 =  1.265E-12

      iter #   5 total cpu time : 16090.7 secs   av.it.:  15.3
      thresh= 1.125E-07 alpha_mix =  0.700 |ddv_scf|^2 =  6.609E-14

      iter #   6 total cpu time : 16178.2 secs   av.it.:  15.1
      thresh= 2.571E-08 alpha_mix =  0.700 |ddv_scf|^2 =  7.927E-15

     End of self-consistent calculation

     Convergence has been achieved 


     Representation #  26 mode #  26

     Self-consistent Calculation

      iter #   1 total cpu time : 16240.9 secs   av.it.:   3.0
      thresh= 1.000E-02 alpha_mix =  0.700 |ddv_scf|^2 =  4.199E-09

      iter #   2 total cpu time : 16327.3 secs   av.it.:  15.0
      thresh= 6.480E-06 alpha_mix =  0.700 |ddv_scf|^2 =  1.407E-09

      iter #   3 total cpu time : 16410.9 secs   av.it.:  14.7
      thresh= 3.751E-06 alpha_mix =  0.700 |ddv_scf|^2 =  1.329E-11

      iter #   4 total cpu time : 16497.5 secs   av.it.:  15.0
      thresh= 3.646E-07 alpha_mix =  0.700 |ddv_scf|^2 =  1.946E-12

      iter #   5 total cpu time : 16583.4 secs   av.it.:  14.9
      thresh= 1.395E-07 alpha_mix =  0.700 |ddv_scf|^2 =  1.933E-14

      iter #   6 total cpu time : 16671.1 secs   av.it.:  15.4
      thresh= 1.390E-08 alpha_mix =  0.700 |ddv_scf|^2 =  4.137E-15

     End of self-consistent calculation

     Convergence has been achieved 


     Representation #  27 mode #  27

     Self-consistent Calculation

      iter #   1 total cpu time : 16739.3 secs   av.it.:   5.0
      thresh= 1.000E-02 alpha_mix =  0.700 |ddv_scf|^2 =  5.084E-08

      iter #   2 total cpu time : 16818.8 secs   av.it.:  14.9
      thresh= 2.255E-05 alpha_mix =  0.700 |ddv_scf|^2 =  3.195E-08

      iter #   3 total cpu time : 16900.1 secs   av.it.:  14.1
      thresh= 1.787E-05 alpha_mix =  0.700 |ddv_scf|^2 =  1.645E-10

      iter #   4 total cpu time : 16984.1 secs   av.it.:  15.0
      thresh= 1.283E-06 alpha_mix =  0.700 |ddv_scf|^2 =  6.103E-12

      iter #   5 total cpu time : 17066.3 secs   av.it.:  15.0
      thresh= 2.470E-07 alpha_mix =  0.700 |ddv_scf|^2 =  1.279E-13

      iter #   6 total cpu time : 17149.1 secs   av.it.:  15.7
      thresh= 3.577E-08 alpha_mix =  0.700 |ddv_scf|^2 =  1.291E-14

      iter #   7 total cpu time : 17230.7 secs   av.it.:  15.2
      thresh= 1.136E-08 alpha_mix =  0.700 |ddv_scf|^2 =  9.147E-16

     End of self-consistent calculation

     Convergence has been achieved 


     Representation #  28 mode #  28

     Self-consistent Calculation

      iter #   1 total cpu time : 17309.0 secs   av.it.:   3.0
      thresh= 1.000E-02 alpha_mix =  0.700 |ddv_scf|^2 =  8.747E-09

      iter #   2 total cpu time : 17389.5 secs   av.it.:  15.0
      thresh= 9.352E-06 alpha_mix =  0.700 |ddv_scf|^2 =  6.555E-09

      iter #   3 total cpu time : 17468.0 secs   av.it.:  14.0
      thresh= 8.097E-06 alpha_mix =  0.700 |ddv_scf|^2 =  4.073E-12

      iter #   4 total cpu time : 17555.9 secs   av.it.:  15.6
      thresh= 2.018E-07 alpha_mix =  0.700 |ddv_scf|^2 =  9.340E-13

      iter #   5 total cpu time : 17641.3 secs   av.it.:  14.9
      thresh= 9.665E-08 alpha_mix =  0.700 |ddv_scf|^2 =  1.093E-14

      iter #   6 total cpu time : 17728.3 secs   av.it.:  15.1
      thresh= 1.046E-08 alpha_mix =  0.700 |ddv_scf|^2 =  6.949E-16

     End of self-consistent calculation

     Convergence has been achieved 


     Representation #  29 mode #  29

     Self-consistent Calculation

      iter #   1 total cpu time : 17792.3 secs   av.it.:   3.9
      thresh= 1.000E-02 alpha_mix =  0.700 |ddv_scf|^2 =  4.641E-09

      iter #   2 total cpu time : 17880.8 secs   av.it.:  15.8
      thresh= 6.813E-06 alpha_mix =  0.700 |ddv_scf|^2 =  2.908E-09

      iter #   3 total cpu time : 17965.6 secs   av.it.:  14.9
      thresh= 5.392E-06 alpha_mix =  0.700 |ddv_scf|^2 =  3.386E-12

      iter #   4 total cpu time : 18054.2 secs   av.it.:  15.7
      thresh= 1.840E-07 alpha_mix =  0.700 |ddv_scf|^2 =  1.030E-12

      iter #   5 total cpu time : 18140.0 secs   av.it.:  15.0
      thresh= 1.015E-07 alpha_mix =  0.700 |ddv_scf|^2 =  4.898E-14

      iter #   6 total cpu time : 18222.3 secs   av.it.:  15.0
      thresh= 2.213E-08 alpha_mix =  0.700 |ddv_scf|^2 =  4.346E-15

     End of self-consistent calculation

     Convergence has been achieved 


     Representation #  30 mode #  30

     Self-consistent Calculation

      iter #   1 total cpu time : 18291.7 secs   av.it.:   5.0
      thresh= 1.000E-02 alpha_mix =  0.700 |ddv_scf|^2 =  5.014E-08

      iter #   2 total cpu time : 18378.5 secs   av.it.:  15.0
      thresh= 2.239E-05 alpha_mix =  0.700 |ddv_scf|^2 =  3.760E-08

      iter #   3 total cpu time : 18457.8 secs   av.it.:  14.1
      thresh= 1.939E-05 alpha_mix =  0.700 |ddv_scf|^2 =  7.469E-11

      iter #   4 total cpu time : 18540.0 secs   av.it.:  15.1
      thresh= 8.642E-07 alpha_mix =  0.700 |ddv_scf|^2 =  7.247E-12

      iter #   5 total cpu time : 18624.2 secs   av.it.:  15.0
      thresh= 2.692E-07 alpha_mix =  0.700 |ddv_scf|^2 =  3.641E-13

      iter #   6 total cpu time : 18711.5 secs   av.it.:  15.7
      thresh= 6.034E-08 alpha_mix =  0.700 |ddv_scf|^2 =  3.092E-14

      iter #   7 total cpu time : 18798.5 secs   av.it.:  15.4
      thresh= 1.758E-08 alpha_mix =  0.700 |ddv_scf|^2 =  2.257E-15

     End of self-consistent calculation

     Convergence has been achieved 


     Representation #  31 mode #  31

     Self-consistent Calculation

      iter #   1 total cpu time : 18878.1 secs   av.it.:   3.0
      thresh= 1.000E-02 alpha_mix =  0.700 |ddv_scf|^2 =  6.595E-09

      iter #   2 total cpu time : 18958.9 secs   av.it.:  15.0
      thresh= 8.121E-06 alpha_mix =  0.700 |ddv_scf|^2 =  3.486E-09

      iter #   3 total cpu time : 19039.6 secs   av.it.:  14.5
      thresh= 5.904E-06 alpha_mix =  0.700 |ddv_scf|^2 =  1.364E-11

      iter #   4 total cpu time : 19125.1 secs   av.it.:  15.0
      thresh= 3.693E-07 alpha_mix =  0.700 |ddv_scf|^2 =  1.792E-12

      iter #   5 total cpu time : 19207.6 secs   av.it.:  14.7
      thresh= 1.339E-07 alpha_mix =  0.700 |ddv_scf|^2 =  5.757E-14

      iter #   6 total cpu time : 19293.5 secs   av.it.:  15.0
      thresh= 2.399E-08 alpha_mix =  0.700 |ddv_scf|^2 =  8.480E-15

     End of self-consistent calculation

     Convergence has been achieved 


     Representation #  32 mode #  32

     Self-consistent Calculation

      iter #   1 total cpu time : 19356.7 secs   av.it.:   3.5
      thresh= 1.000E-02 alpha_mix =  0.700 |ddv_scf|^2 =  2.721E-09

      iter #   2 total cpu time : 19444.4 secs   av.it.:  15.9
      thresh= 5.216E-06 alpha_mix =  0.700 |ddv_scf|^2 =  1.610E-09

      iter #   3 total cpu time : 19528.6 secs   av.it.:  14.9
      thresh= 4.013E-06 alpha_mix =  0.700 |ddv_scf|^2 =  7.738E-12

      iter #   4 total cpu time : 19613.6 secs   av.it.:  15.0
      thresh= 2.782E-07 alpha_mix =  0.700 |ddv_scf|^2 =  9.568E-13

      iter #   5 total cpu time : 19699.1 secs   av.it.:  15.0
      thresh= 9.782E-08 alpha_mix =  0.700 |ddv_scf|^2 =  7.801E-14

      iter #   6 total cpu time : 19784.3 secs   av.it.:  15.0
      thresh= 2.793E-08 alpha_mix =  0.700 |ddv_scf|^2 =  7.655E-15

     End of self-consistent calculation

     Convergence has been achieved 


     Representation #  33 mode #  33

     Self-consistent Calculation

      iter #   1 total cpu time : 19848.1 secs   av.it.:   3.5
      thresh= 1.000E-02 alpha_mix =  0.700 |ddv_scf|^2 =  4.531E-09

      iter #   2 total cpu time : 19936.0 secs   av.it.:  15.8
      thresh= 6.731E-06 alpha_mix =  0.700 |ddv_scf|^2 =  3.416E-09

      iter #   3 total cpu time : 20018.1 secs   av.it.:  14.9
      thresh= 5.845E-06 alpha_mix =  0.700 |ddv_scf|^2 =  5.905E-12

      iter #   4 total cpu time : 20108.0 secs   av.it.:  16.0
      thresh= 2.430E-07 alpha_mix =  0.700 |ddv_scf|^2 =  4.641E-13

      iter #   5 total cpu time : 20197.0 secs   av.it.:  15.9
      thresh= 6.813E-08 alpha_mix =  0.700 |ddv_scf|^2 =  1.825E-14

      iter #   6 total cpu time : 20284.6 secs   av.it.:  15.8
      thresh= 1.351E-08 alpha_mix =  0.700 |ddv_scf|^2 =  1.052E-15

     End of self-consistent calculation

     Convergence has been achieved 


     Representation #  34 mode #  34

     Self-consistent Calculation

      iter #   1 total cpu time : 20346.0 secs   av.it.:   3.0
      thresh= 1.000E-02 alpha_mix =  0.700 |ddv_scf|^2 =  7.776E-10

      iter #   2 total cpu time : 20434.1 secs   av.it.:  15.7
      thresh= 2.788E-06 alpha_mix =  0.700 |ddv_scf|^2 =  7.090E-11

      iter #   3 total cpu time : 20522.0 secs   av.it.:  15.5
      thresh= 8.420E-07 alpha_mix =  0.700 |ddv_scf|^2 =  5.004E-12

      iter #   4 total cpu time : 20608.6 secs   av.it.:  15.1
      thresh= 2.237E-07 alpha_mix =  0.700 |ddv_scf|^2 =  4.931E-13

      iter #   5 total cpu time : 20694.3 secs   av.it.:  15.0
      thresh= 7.022E-08 alpha_mix =  0.700 |ddv_scf|^2 =  1.842E-14

      iter #   6 total cpu time : 20782.8 secs   av.it.:  15.8
      thresh= 1.357E-08 alpha_mix =  0.700 |ddv_scf|^2 =  8.710E-16

     End of self-consistent calculation

     Convergence has been achieved 


     Representation #  35 mode #  35

     Self-consistent Calculation

      iter #   1 total cpu time : 20845.6 secs   av.it.:   3.0
      thresh= 1.000E-02 alpha_mix =  0.700 |ddv_scf|^2 =  2.967E-09

      iter #   2 total cpu time : 20930.8 secs   av.it.:  15.3
      thresh= 5.447E-06 alpha_mix =  0.700 |ddv_scf|^2 =  1.238E-09

      iter #   3 total cpu time : 21014.4 secs   av.it.:  14.9
      thresh= 3.518E-06 alpha_mix =  0.700 |ddv_scf|^2 =  1.960E-11

      iter #   4 total cpu time : 21094.9 secs   av.it.:  15.0
      thresh= 4.428E-07 alpha_mix =  0.700 |ddv_scf|^2 =  5.647E-13

      iter #   5 total cpu time : 21182.0 secs   av.it.:  15.7
      thresh= 7.514E-08 alpha_mix =  0.700 |ddv_scf|^2 =  3.592E-14

      iter #   6 total cpu time : 21268.4 secs   av.it.:  15.0
      thresh= 1.895E-08 alpha_mix =  0.700 |ddv_scf|^2 =  1.393E-15

     End of self-consistent calculation

     Convergence has been achieved 


     Representation #  36 mode #  36

     Self-consistent Calculation

      iter #   1 total cpu time : 21337.0 secs   av.it.:   4.3
      thresh= 1.000E-02 alpha_mix =  0.700 |ddv_scf|^2 =  5.554E-09

      iter #   2 total cpu time : 21427.6 secs   av.it.:  15.9
      thresh= 7.453E-06 alpha_mix =  0.700 |ddv_scf|^2 =  3.812E-10

      iter #   3 total cpu time : 21517.5 secs   av.it.:  15.9
      thresh= 1.953E-06 alpha_mix =  0.700 |ddv_scf|^2 =  1.497E-11

      iter #   4 total cpu time : 21605.2 secs   av.it.:  15.7
      thresh= 3.869E-07 alpha_mix =  0.700 |ddv_scf|^2 =  3.747E-12

      iter #   5 total cpu time : 21691.5 secs   av.it.:  15.0
      thresh= 1.936E-07 alpha_mix =  0.700 |ddv_scf|^2 =  1.330E-13

      iter #   6 total cpu time : 21778.8 secs   av.it.:  15.6
      thresh= 3.647E-08 alpha_mix =  0.700 |ddv_scf|^2 =  3.761E-15

     End of self-consistent calculation

     Convergence has been achieved 


     Representation #  37 mode #  37

     Self-consistent Calculation

      iter #   1 total cpu time : 21856.2 secs   av.it.:   3.0
      thresh= 1.000E-02 alpha_mix =  0.700 |ddv_scf|^2 =  8.964E-10

      iter #   2 total cpu time : 21939.9 secs   av.it.:  15.9
      thresh= 2.994E-06 alpha_mix =  0.700 |ddv_scf|^2 =  1.564E-10

      iter #   3 total cpu time : 22022.5 secs   av.it.:  15.4
      thresh= 1.251E-06 alpha_mix =  0.700 |ddv_scf|^2 =  2.024E-11

      iter #   4 total cpu time : 22104.2 secs   av.it.:  14.9
      thresh= 4.498E-07 alpha_mix =  0.700 |ddv_scf|^2 =  2.924E-13

      iter #   5 total cpu time : 22191.2 secs   av.it.:  15.4
      thresh= 5.407E-08 alpha_mix =  0.700 |ddv_scf|^2 =  6.525E-15

     End of self-consistent calculation

     Convergence has been achieved 


     Representation #  38 mode #  38

     Self-consistent Calculation

      iter #   1 total cpu time : 22253.6 secs   av.it.:   3.0
      thresh= 1.000E-02 alpha_mix =  0.700 |ddv_scf|^2 =  1.853E-09

      iter #   2 total cpu time : 22341.2 secs   av.it.:  15.7
      thresh= 4.305E-06 alpha_mix =  0.700 |ddv_scf|^2 =  4.306E-10

      iter #   3 total cpu time : 22426.5 secs   av.it.:  15.0
      thresh= 2.075E-06 alpha_mix =  0.700 |ddv_scf|^2 =  1.614E-11

      iter #   4 total cpu time : 22512.6 secs   av.it.:  15.0
      thresh= 4.018E-07 alpha_mix =  0.700 |ddv_scf|^2 =  9.026E-13

      iter #   5 total cpu time : 22600.0 secs   av.it.:  15.2
      thresh= 9.500E-08 alpha_mix =  0.700 |ddv_scf|^2 =  2.521E-14

      iter #   6 total cpu time : 22687.4 secs   av.it.:  15.3
      thresh= 1.588E-08 alpha_mix =  0.700 |ddv_scf|^2 =  9.974E-16

     End of self-consistent calculation

     Convergence has been achieved 


     Representation #  39 mode #  39

     Self-consistent Calculation

      iter #   1 total cpu time : 22763.8 secs   av.it.:   6.1
      thresh= 1.000E-02 alpha_mix =  0.700 |ddv_scf|^2 =  2.209E-07

      iter #   2 total cpu time : 22843.9 secs   av.it.:  15.0
      thresh= 4.700E-05 alpha_mix =  0.700 |ddv_scf|^2 =  1.136E-07

      iter #   3 total cpu time : 22922.6 secs   av.it.:  14.7
      thresh= 3.370E-05 alpha_mix =  0.700 |ddv_scf|^2 =  5.336E-10

      iter #   4 total cpu time : 23009.9 secs   av.it.:  15.1
      thresh= 2.310E-06 alpha_mix =  0.700 |ddv_scf|^2 =  1.156E-11

      iter #   5 total cpu time : 23097.5 secs   av.it.:  15.5
      thresh= 3.399E-07 alpha_mix =  0.700 |ddv_scf|^2 =  5.034E-13

      iter #   6 total cpu time : 23181.2 secs   av.it.:  14.7
      thresh= 7.095E-08 alpha_mix =  0.700 |ddv_scf|^2 =  3.229E-14

      iter #   7 total cpu time : 23264.8 secs   av.it.:  14.6
      thresh= 1.797E-08 alpha_mix =  0.700 |ddv_scf|^2 =  4.193E-15

     End of self-consistent calculation

     Convergence has been achieved 


     Representation #  40 mode #  40

     Self-consistent Calculation

      iter #   1 total cpu time : 23338.6 secs   av.it.:   4.6
      thresh= 1.000E-02 alpha_mix =  0.700 |ddv_scf|^2 =  8.429E-09

      iter #   2 total cpu time : 23428.7 secs   av.it.:  15.9
      thresh= 9.181E-06 alpha_mix =  0.700 |ddv_scf|^2 =  1.928E-09

      iter #   3 total cpu time : 23516.0 secs   av.it.:  15.2
      thresh= 4.391E-06 alpha_mix =  0.700 |ddv_scf|^2 =  5.762E-11

      iter #   4 total cpu time : 23602.5 secs   av.it.:  15.0
      thresh= 7.591E-07 alpha_mix =  0.700 |ddv_scf|^2 =  6.037E-12

      iter #   5 total cpu time : 23689.4 secs   av.it.:  15.1
      thresh= 2.457E-07 alpha_mix =  0.700 |ddv_scf|^2 =  3.456E-13

      iter #   6 total cpu time : 23777.0 secs   av.it.:  15.6
      thresh= 5.879E-08 alpha_mix =  0.700 |ddv_scf|^2 =  1.137E-15

     End of self-consistent calculation

     Convergence has been achieved 


     Representation #  41 mode #  41

     Self-consistent Calculation

      iter #   1 total cpu time : 23856.6 secs   av.it.:   3.9
      thresh= 1.000E-02 alpha_mix =  0.700 |ddv_scf|^2 =  6.143E-09

      iter #   2 total cpu time : 23938.2 secs   av.it.:  15.4
      thresh= 7.838E-06 alpha_mix =  0.700 |ddv_scf|^2 =  4.181E-09

      iter #   3 total cpu time : 24021.9 secs   av.it.:  14.8
      thresh= 6.466E-06 alpha_mix =  0.700 |ddv_scf|^2 =  4.728E-12

      iter #   4 total cpu time : 24110.6 secs   av.it.:  15.8
      thresh= 2.174E-07 alpha_mix =  0.700 |ddv_scf|^2 =  7.502E-13

      iter #   5 total cpu time : 24197.8 secs   av.it.:  15.3
      thresh= 8.662E-08 alpha_mix =  0.700 |ddv_scf|^2 =  5.005E-14

      iter #   6 total cpu time : 24283.7 secs   av.it.:  15.0
      thresh= 2.237E-08 alpha_mix =  0.700 |ddv_scf|^2 =  7.008E-16

     End of self-consistent calculation

     Convergence has been achieved 


     Representation #  42 mode #  42

     Self-consistent Calculation

      iter #   1 total cpu time : 24344.1 secs   av.it.:   3.0
      thresh= 1.000E-02 alpha_mix =  0.700 |ddv_scf|^2 =  3.729E-10

      iter #   2 total cpu time : 24432.3 secs   av.it.:  15.7
      thresh= 1.931E-06 alpha_mix =  0.700 |ddv_scf|^2 =  3.111E-11

      iter #   3 total cpu time : 24521.0 secs   av.it.:  15.8
      thresh= 5.577E-07 alpha_mix =  0.700 |ddv_scf|^2 =  1.636E-11

      iter #   4 total cpu time : 24604.4 secs   av.it.:  14.8
      thresh= 4.045E-07 alpha_mix =  0.700 |ddv_scf|^2 =  1.704E-13

      iter #   5 total cpu time : 24691.7 secs   av.it.:  15.5
      thresh= 4.128E-08 alpha_mix =  0.700 |ddv_scf|^2 =  1.107E-14

      iter #   6 total cpu time : 24778.3 secs   av.it.:  15.4
      thresh= 1.052E-08 alpha_mix =  0.700 |ddv_scf|^2 =  4.846E-16

     End of self-consistent calculation

     Convergence has been achieved 


     Representation #  43 mode #  43

     Self-consistent Calculation

      iter #   1 total cpu time : 24846.3 secs   av.it.:   4.3
      thresh= 1.000E-02 alpha_mix =  0.700 |ddv_scf|^2 =  5.664E-09

      iter #   2 total cpu time : 24936.0 secs   av.it.:  16.0
      thresh= 7.526E-06 alpha_mix =  0.700 |ddv_scf|^2 =  4.243E-10

      iter #   3 total cpu time : 25024.9 secs   av.it.:  15.9
      thresh= 2.060E-06 alpha_mix =  0.700 |ddv_scf|^2 =  2.965E-11

      iter #   4 total cpu time : 25110.1 secs   av.it.:  15.0
      thresh= 5.445E-07 alpha_mix =  0.700 |ddv_scf|^2 =  4.419E-12

      iter #   5 total cpu time : 25196.7 secs   av.it.:  15.0
      thresh= 2.102E-07 alpha_mix =  0.700 |ddv_scf|^2 =  1.632E-14

      iter #   6 total cpu time : 25285.9 secs   av.it.:  15.9
      thresh= 1.278E-08 alpha_mix =  0.700 |ddv_scf|^2 =  2.944E-16

     End of self-consistent calculation

     Convergence has been achieved 


     Representation #  44 mode #  44

     Self-consistent Calculation

      iter #   1 total cpu time : 25380.6 secs   av.it.:   6.3
      thresh= 1.000E-02 alpha_mix =  0.700 |ddv_scf|^2 =  7.509E-08

      iter #   2 total cpu time : 25467.5 secs   av.it.:  15.6
      thresh= 2.740E-05 alpha_mix =  0.700 |ddv_scf|^2 =  2.318E-08

      iter #   3 total cpu time : 25551.2 secs   av.it.:  14.9
      thresh= 1.523E-05 alpha_mix =  0.700 |ddv_scf|^2 =  3.273E-10

      iter #   4 total cpu time : 25636.3 secs   av.it.:  14.9
      thresh= 1.809E-06 alpha_mix =  0.700 |ddv_scf|^2 =  1.951E-11

      iter #   5 total cpu time : 25722.1 secs   av.it.:  14.9
      thresh= 4.417E-07 alpha_mix =  0.700 |ddv_scf|^2 =  1.533E-13

      iter #   6 total cpu time : 25809.8 secs   av.it.:  15.6
      thresh= 3.915E-08 alpha_mix =  0.700 |ddv_scf|^2 =  6.178E-15

     End of self-consistent calculation

     Convergence has been achieved 


     Representation #  45 mode #  45

     Self-consistent Calculation

      iter #   1 total cpu time : 25876.3 secs   av.it.:   3.0
      thresh= 1.000E-02 alpha_mix =  0.700 |ddv_scf|^2 =  1.140E-09

      iter #   2 total cpu time : 25964.9 secs   av.it.:  15.9
      thresh= 3.376E-06 alpha_mix =  0.700 |ddv_scf|^2 =  2.762E-10

      iter #   3 total cpu time : 26051.1 secs   av.it.:  15.0
      thresh= 1.662E-06 alpha_mix =  0.700 |ddv_scf|^2 =  1.676E-11

      iter #   4 total cpu time : 26137.6 secs   av.it.:  15.0
      thresh= 4.094E-07 alpha_mix =  0.700 |ddv_scf|^2 =  4.523E-13

      iter #   5 total cpu time : 26225.5 secs   av.it.:  15.4
      thresh= 6.725E-08 alpha_mix =  0.700 |ddv_scf|^2 =  2.183E-14

      iter #   6 total cpu time : 26313.3 secs   av.it.:  15.4
      thresh= 1.478E-08 alpha_mix =  0.700 |ddv_scf|^2 =  1.181E-15

     End of self-consistent calculation

     Convergence has been achieved 


     Representation #  46 mode #  46

     Self-consistent Calculation

      iter #   1 total cpu time : 26376.9 secs   av.it.:   3.0
      thresh= 1.000E-02 alpha_mix =  0.700 |ddv_scf|^2 =  2.604E-09

      iter #   2 total cpu time : 26461.6 secs   av.it.:  15.9
      thresh= 5.103E-06 alpha_mix =  0.700 |ddv_scf|^2 =  2.002E-09

      iter #   3 total cpu time : 26541.0 secs   av.it.:  14.8
      thresh= 4.474E-06 alpha_mix =  0.700 |ddv_scf|^2 =  5.385E-12

      iter #   4 total cpu time : 26626.7 secs   av.it.:  16.0
      thresh= 2.321E-07 alpha_mix =  0.700 |ddv_scf|^2 =  5.327E-13

      iter #   5 total cpu time : 26711.7 secs   av.it.:  15.9
      thresh= 7.299E-08 alpha_mix =  0.700 |ddv_scf|^2 =  8.205E-15

     End of self-consistent calculation

     Convergence has been achieved 


     Representation #  47 mode #  47

     Self-consistent Calculation

      iter #   1 total cpu time : 26773.9 secs   av.it.:   3.7
      thresh= 1.000E-02 alpha_mix =  0.700 |ddv_scf|^2 =  2.890E-09

      iter #   2 total cpu time : 26857.1 secs   av.it.:  15.9
      thresh= 5.376E-06 alpha_mix =  0.700 |ddv_scf|^2 =  2.281E-09

      iter #   3 total cpu time : 26936.0 secs   av.it.:  14.9
      thresh= 4.776E-06 alpha_mix =  0.700 |ddv_scf|^2 =  6.651E-12

      iter #   4 total cpu time : 27026.2 secs   av.it.:  15.9
      thresh= 2.579E-07 alpha_mix =  0.700 |ddv_scf|^2 =  5.262E-13

      iter #   5 total cpu time : 27115.6 secs   av.it.:  15.8
      thresh= 7.254E-08 alpha_mix =  0.700 |ddv_scf|^2 =  1.042E-14

      iter #   6 total cpu time : 27205.2 secs   av.it.:  15.9
      thresh= 1.021E-08 alpha_mix =  0.700 |ddv_scf|^2 =  8.624E-16

     End of self-consistent calculation

     Convergence has been achieved 


     Representation #  48 mode #  48

     Self-consistent Calculation

      iter #   1 total cpu time : 27266.9 secs   av.it.:   3.0
      thresh= 1.000E-02 alpha_mix =  0.700 |ddv_scf|^2 =  3.916E-10

      iter #   2 total cpu time : 27356.6 secs   av.it.:  15.9
      thresh= 1.979E-06 alpha_mix =  0.700 |ddv_scf|^2 =  2.026E-11

      iter #   3 total cpu time : 27447.5 secs   av.it.:  15.9
      thresh= 4.501E-07 alpha_mix =  0.700 |ddv_scf|^2 =  3.275E-12

      iter #   4 total cpu time : 27536.0 secs   av.it.:  15.7
      thresh= 1.810E-07 alpha_mix =  0.700 |ddv_scf|^2 =  3.330E-13

      iter #   5 total cpu time : 27621.9 secs   av.it.:  15.0
      thresh= 5.770E-08 alpha_mix =  0.700 |ddv_scf|^2 =  2.064E-14

      iter #   6 total cpu time : 27707.3 secs   av.it.:  15.0
      thresh= 1.437E-08 alpha_mix =  0.700 |ddv_scf|^2 =  5.398E-16

     End of self-consistent calculation

     Convergence has been achieved 


     Representation #  49 mode #  49

     Self-consistent Calculation

      iter #   1 total cpu time : 27769.4 secs   av.it.:   3.0
      thresh= 1.000E-02 alpha_mix =  0.700 |ddv_scf|^2 =  1.214E-09

      iter #   2 total cpu time : 27858.8 secs   av.it.:  15.9
      thresh= 3.485E-06 alpha_mix =  0.700 |ddv_scf|^2 =  6.592E-10

      iter #   3 total cpu time : 27943.6 secs   av.it.:  14.9
      thresh= 2.567E-06 alpha_mix =  0.700 |ddv_scf|^2 =  8.126E-12

      iter #   4 total cpu time : 28030.8 secs   av.it.:  15.1
      thresh= 2.851E-07 alpha_mix =  0.700 |ddv_scf|^2 =  5.147E-13

      iter #   5 total cpu time : 28119.7 secs   av.it.:  15.9
      thresh= 7.174E-08 alpha_mix =  0.700 |ddv_scf|^2 =  1.638E-14

      iter #   6 total cpu time : 28208.0 secs   av.it.:  15.8
      thresh= 1.280E-08 alpha_mix =  0.700 |ddv_scf|^2 =  7.075E-16

     End of self-consistent calculation

     Convergence has been achieved 


     Representation #  50 mode #  50

     Self-consistent Calculation

      iter #   1 total cpu time : 28276.7 secs   av.it.:   4.8
      thresh= 1.000E-02 alpha_mix =  0.700 |ddv_scf|^2 =  1.006E-08

      iter #   2 total cpu time : 28365.1 secs   av.it.:  15.9
      thresh= 1.003E-05 alpha_mix =  0.700 |ddv_scf|^2 =  4.132E-09

      iter #   3 total cpu time : 28449.7 secs   av.it.:  14.9
      thresh= 6.428E-06 alpha_mix =  0.700 |ddv_scf|^2 =  1.287E-10

      iter #   4 total cpu time : 28535.9 secs   av.it.:  15.0
      thresh= 1.134E-06 alpha_mix =  0.700 |ddv_scf|^2 =  2.713E-12

      iter #   5 total cpu time : 28624.1 secs   av.it.:  15.6
      thresh= 1.647E-07 alpha_mix =  0.700 |ddv_scf|^2 =  4.569E-13

      iter #   6 total cpu time : 28710.8 secs   av.it.:  15.0
      thresh= 6.759E-08 alpha_mix =  0.700 |ddv_scf|^2 =  1.743E-15

     End of self-consistent calculation

     Convergence has been achieved 


     Representation #  51 mode #  51

     Self-consistent Calculation

      iter #   1 total cpu time : 28791.4 secs   av.it.:   3.0
      thresh= 1.000E-02 alpha_mix =  0.700 |ddv_scf|^2 =  3.092E-09

      iter #   2 total cpu time : 28879.5 secs   av.it.:  15.9
      thresh= 5.560E-06 alpha_mix =  0.700 |ddv_scf|^2 =  2.414E-09

      iter #   3 total cpu time : 28963.4 secs   av.it.:  14.9
      thresh= 4.913E-06 alpha_mix =  0.700 |ddv_scf|^2 =  5.184E-12

      iter #   4 total cpu time : 29053.8 secs   av.it.:  15.9
      thresh= 2.277E-07 alpha_mix =  0.700 |ddv_scf|^2 =  1.035E-12

      iter #   5 total cpu time : 29141.4 secs   av.it.:  15.7
      thresh= 1.017E-07 alpha_mix =  0.700 |ddv_scf|^2 =  5.410E-14

      iter #   6 total cpu time : 29228.4 secs   av.it.:  15.5
      thresh= 2.326E-08 alpha_mix =  0.700 |ddv_scf|^2 =  2.644E-15

     End of self-consistent calculation

     Convergence has been achieved 


     Representation #  52 mode #  52

     Self-consistent Calculation

      iter #   1 total cpu time : 29289.7 secs   av.it.:   3.2
      thresh= 1.000E-02 alpha_mix =  0.700 |ddv_scf|^2 =  2.361E-09

      iter #   2 total cpu time : 29372.8 secs   av.it.:  15.9
      thresh= 4.859E-06 alpha_mix =  0.700 |ddv_scf|^2 =  1.258E-09

      iter #   3 total cpu time : 29452.7 secs   av.it.:  14.9
      thresh= 3.547E-06 alpha_mix =  0.700 |ddv_scf|^2 =  1.292E-11

      iter #   4 total cpu time : 29532.9 secs   av.it.:  15.0
      thresh= 3.595E-07 alpha_mix =  0.700 |ddv_scf|^2 =  1.268E-12

      iter #   5 total cpu time : 29613.6 secs   av.it.:  15.2
      thresh= 1.126E-07 alpha_mix =  0.700 |ddv_scf|^2 =  5.040E-14

      iter #   6 total cpu time : 29695.9 secs   av.it.:  15.1
      thresh= 2.245E-08 alpha_mix =  0.700 |ddv_scf|^2 =  1.376E-15

     End of self-consistent calculation

     Convergence has been achieved 


     Representation #  53 mode #  53

     Self-consistent Calculation

      iter #   1 total cpu time : 29757.3 secs   av.it.:   3.0
      thresh= 1.000E-02 alpha_mix =  0.700 |ddv_scf|^2 =  1.355E-09

      iter #   2 total cpu time : 29841.2 secs   av.it.:  15.9
      thresh= 3.682E-06 alpha_mix =  0.700 |ddv_scf|^2 =  5.963E-10

      iter #   3 total cpu time : 29921.8 secs   av.it.:  15.0
      thresh= 2.442E-06 alpha_mix =  0.700 |ddv_scf|^2 =  8.762E-12

      iter #   4 total cpu time : 30003.6 secs   av.it.:  15.3
      thresh= 2.960E-07 alpha_mix =  0.700 |ddv_scf|^2 =  1.164E-12

      iter #   5 total cpu time : 30083.1 secs   av.it.:  15.0
      thresh= 1.079E-07 alpha_mix =  0.700 |ddv_scf|^2 =  6.061E-14

      iter #   6 total cpu time : 30164.4 secs   av.it.:  15.3
      thresh= 2.462E-08 alpha_mix =  0.700 |ddv_scf|^2 =  1.739E-15

     End of self-consistent calculation

     Convergence has been achieved 


     Representation #  54 mode #  54

     Self-consistent Calculation

      iter #   1 total cpu time : 30225.6 secs   av.it.:   3.0
      thresh= 1.000E-02 alpha_mix =  0.700 |ddv_scf|^2 =  4.166E-09

      iter #   2 total cpu time : 30306.2 secs   av.it.:  15.3
      thresh= 6.455E-06 alpha_mix =  0.700 |ddv_scf|^2 =  2.917E-09

      iter #   3 total cpu time : 30382.8 secs   av.it.:  14.6
      thresh= 5.401E-06 alpha_mix =  0.700 |ddv_scf|^2 =  6.381E-12

      iter #   4 total cpu time : 30464.6 secs   av.it.:  15.7
      thresh= 2.526E-07 alpha_mix =  0.700 |ddv_scf|^2 =  7.415E-13

      iter #   5 total cpu time : 30545.7 secs   av.it.:  15.3
      thresh= 8.611E-08 alpha_mix =  0.700 |ddv_scf|^2 =  2.455E-14

      iter #   6 total cpu time : 30630.3 secs   av.it.:  15.9
      thresh= 1.567E-08 alpha_mix =  0.700 |ddv_scf|^2 =  2.120E-15

     End of self-consistent calculation

     Convergence has been achieved 


     Representation #  55 mode #  55

     Self-consistent Calculation

      iter #   1 total cpu time : 30690.5 secs   av.it.:   3.0
      thresh= 1.000E-02 alpha_mix =  0.700 |ddv_scf|^2 =  6.834E-10

      iter #   2 total cpu time : 30775.4 secs   av.it.:  15.9
      thresh= 2.614E-06 alpha_mix =  0.700 |ddv_scf|^2 =  1.592E-10

      iter #   3 total cpu time : 30857.5 secs   av.it.:  15.4
      thresh= 1.262E-06 alpha_mix =  0.700 |ddv_scf|^2 =  7.069E-12

      iter #   4 total cpu time : 30945.4 secs   av.it.:  15.4
      thresh= 2.659E-07 alpha_mix =  0.700 |ddv_scf|^2 =  1.530E-13

      iter #   5 total cpu time : 31034.7 secs   av.it.:  15.9
      thresh= 3.912E-08 alpha_mix =  0.700 |ddv_scf|^2 =  2.521E-14

      iter #   6 total cpu time : 31120.7 secs   av.it.:  15.0
      thresh= 1.588E-08 alpha_mix =  0.700 |ddv_scf|^2 =  1.853E-15

     End of self-consistent calculation

     Convergence has been achieved 


     Representation #  56 mode #  56

     Self-consistent Calculation

      iter #   1 total cpu time : 31200.1 secs   av.it.:   6.8
      thresh= 1.000E-02 alpha_mix =  0.700 |ddv_scf|^2 =  2.158E-07

      iter #   2 total cpu time : 31287.0 secs   av.it.:  15.0
      thresh= 4.646E-05 alpha_mix =  0.700 |ddv_scf|^2 =  1.714E-07

      iter #   3 total cpu time : 31369.7 secs   av.it.:  14.5
      thresh= 4.140E-05 alpha_mix =  0.700 |ddv_scf|^2 =  1.462E-10

      iter #   4 total cpu time : 31458.2 secs   av.it.:  15.6
      thresh= 1.209E-06 alpha_mix =  0.700 |ddv_scf|^2 =  2.197E-11

      iter #   5 total cpu time : 31545.9 secs   av.it.:  15.6
      thresh= 4.688E-07 alpha_mix =  0.700 |ddv_scf|^2 =  1.163E-12

      iter #   6 total cpu time : 31633.7 secs   av.it.:  15.5
      thresh= 1.078E-07 alpha_mix =  0.700 |ddv_scf|^2 =  2.736E-14

      iter #   7 total cpu time : 31722.1 secs   av.it.:  15.6
      thresh= 1.654E-08 alpha_mix =  0.700 |ddv_scf|^2 =  2.216E-15

     End of self-consistent calculation

     Convergence has been achieved 


     Representation #  57 mode #  57

     Self-consistent Calculation

      iter #   1 total cpu time : 31796.3 secs   av.it.:   5.0
      thresh= 1.000E-02 alpha_mix =  0.700 |ddv_scf|^2 =  3.538E-08

      iter #   2 total cpu time : 31883.9 secs   av.it.:  15.1
      thresh= 1.881E-05 alpha_mix =  0.700 |ddv_scf|^2 =  2.473E-08

      iter #   3 total cpu time : 31967.2 secs   av.it.:  14.6
      thresh= 1.573E-05 alpha_mix =  0.700 |ddv_scf|^2 =  5.605E-11

      iter #   4 total cpu time : 32056.4 secs   av.it.:  15.9
      thresh= 7.487E-07 alpha_mix =  0.700 |ddv_scf|^2 =  5.447E-12

      iter #   5 total cpu time : 32144.6 secs   av.it.:  15.6
      thresh= 2.334E-07 alpha_mix =  0.700 |ddv_scf|^2 =  8.834E-13

      iter #   6 total cpu time : 32232.8 secs   av.it.:  15.4
      thresh= 9.399E-08 alpha_mix =  0.700 |ddv_scf|^2 =  5.806E-15

     End of self-consistent calculation

     Convergence has been achieved 


     Representation #  58 mode #  58

     Self-consistent Calculation

      iter #   1 total cpu time : 32311.3 secs   av.it.:   3.0
      thresh= 1.000E-02 alpha_mix =  0.700 |ddv_scf|^2 =  8.819E-10

      iter #   2 total cpu time : 32399.9 secs   av.it.:  15.7
      thresh= 2.970E-06 alpha_mix =  0.700 |ddv_scf|^2 =  3.763E-10

      iter #   3 total cpu time : 32484.7 secs   av.it.:  14.9
      thresh= 1.940E-06 alpha_mix =  0.700 |ddv_scf|^2 =  1.226E-11

      iter #   4 total cpu time : 32570.1 secs   av.it.:  15.0
      thresh= 3.502E-07 alpha_mix =  0.700 |ddv_scf|^2 =  4.230E-13

      iter #   5 total cpu time : 32657.8 secs   av.it.:  15.5
      thresh= 6.504E-08 alpha_mix =  0.700 |ddv_scf|^2 =  2.270E-14

      iter #   6 total cpu time : 32745.9 secs   av.it.:  15.4
      thresh= 1.506E-08 alpha_mix =  0.700 |ddv_scf|^2 =  1.727E-15

     End of self-consistent calculation

     Convergence has been achieved 


     Representation #  59 mode #  59

     Self-consistent Calculation

      iter #   1 total cpu time : 32807.8 secs   av.it.:   3.0
      thresh= 1.000E-02 alpha_mix =  0.700 |ddv_scf|^2 =  1.569E-09

      iter #   2 total cpu time : 32896.8 secs   av.it.:  15.9
      thresh= 3.961E-06 alpha_mix =  0.700 |ddv_scf|^2 =  7.368E-10

      iter #   3 total cpu time : 32981.8 secs   av.it.:  14.9
      thresh= 2.714E-06 alpha_mix =  0.700 |ddv_scf|^2 =  1.192E-11

      iter #   4 total cpu time : 33068.3 secs   av.it.:  15.0
      thresh= 3.453E-07 alpha_mix =  0.700 |ddv_scf|^2 =  1.196E-12

      iter #   5 total cpu time : 33154.8 secs   av.it.:  15.1
      thresh= 1.094E-07 alpha_mix =  0.700 |ddv_scf|^2 =  4.593E-14

      iter #   6 total cpu time : 33241.8 secs   av.it.:  15.3
      thresh= 2.143E-08 alpha_mix =  0.700 |ddv_scf|^2 =  1.623E-15

     End of self-consistent calculation

     Convergence has been achieved 


     Representation #  60 mode #  60

     Self-consistent Calculation

      iter #   1 total cpu time : 33304.6 secs   av.it.:   3.0
      thresh= 1.000E-02 alpha_mix =  0.700 |ddv_scf|^2 =  2.245E-09

      iter #   2 total cpu time : 33393.7 secs   av.it.:  15.9
      thresh= 4.738E-06 alpha_mix =  0.700 |ddv_scf|^2 =  1.241E-09

      iter #   3 total cpu time : 33478.8 secs   av.it.:  14.9
      thresh= 3.523E-06 alpha_mix =  0.700 |ddv_scf|^2 =  5.596E-12

      iter #   4 total cpu time : 33566.3 secs   av.it.:  15.7
      thresh= 2.366E-07 alpha_mix =  0.700 |ddv_scf|^2 =  1.638E-12

      iter #   5 total cpu time : 33651.3 secs   av.it.:  15.0
      thresh= 1.280E-07 alpha_mix =  0.700 |ddv_scf|^2 =  4.810E-14

      iter #   6 total cpu time : 33738.8 secs   av.it.:  15.7
      thresh= 2.193E-08 alpha_mix =  0.700 |ddv_scf|^2 =  2.217E-15

     End of self-consistent calculation

     Convergence has been achieved 


     Representation #  61 mode #  61

     Self-consistent Calculation

      iter #   1 total cpu time : 33802.2 secs   av.it.:   3.1
      thresh= 1.000E-02 alpha_mix =  0.700 |ddv_scf|^2 =  5.478E-09

      iter #   2 total cpu time : 33888.7 secs   av.it.:  15.1
      thresh= 7.401E-06 alpha_mix =  0.700 |ddv_scf|^2 =  3.480E-09

      iter #   3 total cpu time : 33972.1 secs   av.it.:  14.8
      thresh= 5.899E-06 alpha_mix =  0.700 |ddv_scf|^2 =  1.382E-11

      iter #   4 total cpu time : 34057.8 secs   av.it.:  15.0
      thresh= 3.717E-07 alpha_mix =  0.700 |ddv_scf|^2 =  1.232E-12

      iter #   5 total cpu time : 34144.6 secs   av.it.:  15.3
      thresh= 1.110E-07 alpha_mix =  0.700 |ddv_scf|^2 =  7.562E-14

      iter #   6 total cpu time : 34230.2 secs   av.it.:  15.0
[...]

      iter #   4 total cpu time :992656.5 secs   av.it.:  15.0
      thresh= 6.821E-07 alpha_mix =  0.700 |ddv_scf|^2 =  3.687E-12

      iter #   5 total cpu time :993046.9 secs   av.it.:  15.0
      thresh= 1.920E-07 alpha_mix =  0.700 |ddv_scf|^2 =  1.908E-13

      iter #   6 total cpu time :993447.6 secs   av.it.:  15.2
      thresh= 4.368E-08 alpha_mix =  0.700 |ddv_scf|^2 =  1.557E-14

      iter #   7 total cpu time :993862.3 secs   av.it.:  15.7
      thresh= 1.248E-08 alpha_mix =  0.700 |ddv_scf|^2 =  1.481E-15

     End of self-consistent calculation

     Convergence has been achieved 


     Representation #  64 mode #  64

     Self-consistent Calculation

      iter #   1 total cpu time :994050.9 secs   av.it.:   3.2
      thresh= 1.000E-02 alpha_mix =  0.700 |ddv_scf|^2 =  4.820E-09

      iter #   2 total cpu time :994468.7 secs   av.it.:  15.9
      thresh= 6.943E-06 alpha_mix =  0.700 |ddv_scf|^2 =  3.685E-09

      iter #   3 total cpu time :994866.1 secs   av.it.:  15.0
      thresh= 6.070E-06 alpha_mix =  0.700 |ddv_scf|^2 =  3.772E-11

      iter #   4 total cpu time :995273.4 secs   av.it.:  15.0
      thresh= 6.142E-07 alpha_mix =  0.700 |ddv_scf|^2 =  4.884E-12

      iter #   5 total cpu time :995678.2 secs   av.it.:  15.0
      thresh= 2.210E-07 alpha_mix =  0.700 |ddv_scf|^2 =  1.915E-13

      iter #   6 total cpu time :996090.2 secs   av.it.:  15.4
      thresh= 4.376E-08 alpha_mix =  0.700 |ddv_scf|^2 =  1.805E-14

      iter #   7 total cpu time :996502.4 secs   av.it.:  15.4
      thresh= 1.343E-08 alpha_mix =  0.700 |ddv_scf|^2 =  2.357E-15

     End of self-consistent calculation

     Convergence has been achieved 


     Representation #  65 mode #  65

     Self-consistent Calculation

      iter #   1 total cpu time :996682.7 secs   av.it.:   3.0
      thresh= 1.000E-02 alpha_mix =  0.700 |ddv_scf|^2 =  4.650E-09

      iter #   2 total cpu time :997065.9 secs   av.it.:  15.1
      thresh= 6.819E-06 alpha_mix =  0.700 |ddv_scf|^2 =  4.603E-09

      iter #   3 total cpu time :997431.0 secs   av.it.:  14.0
      thresh= 6.784E-06 alpha_mix =  0.700 |ddv_scf|^2 =  3.320E-11

      iter #   4 total cpu time :997839.5 secs   av.it.:  15.0
      thresh= 5.762E-07 alpha_mix =  0.700 |ddv_scf|^2 =  2.351E-12

      iter #   5 total cpu time :998252.2 secs   av.it.:  15.3
      thresh= 1.533E-07 alpha_mix =  0.700 |ddv_scf|^2 =  1.562E-13

      iter #   6 total cpu time :998662.2 secs   av.it.:  15.0
      thresh= 3.952E-08 alpha_mix =  0.700 |ddv_scf|^2 =  1.136E-14

      iter #   7 total cpu time :999074.0 secs   av.it.:  15.4
      thresh= 1.066E-08 alpha_mix =  0.700 |ddv_scf|^2 =  9.122E-16

     End of self-consistent calculation

     Convergence has been achieved 


     Representation #  66 mode #  66

     Self-consistent Calculation

      iter #   1 total cpu time :999261.4 secs   av.it.:   3.1
      thresh= 1.000E-02 alpha_mix =  0.700 |ddv_scf|^2 =  3.887E-09

      iter #   2 total cpu time :999679.7 secs   av.it.:  15.9
      thresh= 6.234E-06 alpha_mix =  0.700 |ddv_scf|^2 =  2.675E-09

      iter #   3 total cpu time :******** secs   av.it.:  15.0
      thresh= 5.172E-06 alpha_mix =  0.700 |ddv_scf|^2 =  5.621E-11

      iter #   4 total cpu time :******** secs   av.it.:  15.0
      thresh= 7.497E-07 alpha_mix =  0.700 |ddv_scf|^2 =  3.178E-12

      iter #   5 total cpu time :******** secs   av.it.:  15.0
      thresh= 1.783E-07 alpha_mix =  0.700 |ddv_scf|^2 =  1.204E-13

      iter #   6 total cpu time :******** secs   av.it.:  15.8
      thresh= 3.470E-08 alpha_mix =  0.700 |ddv_scf|^2 =  1.343E-14

      iter #   7 total cpu time :******** secs   av.it.:  15.2
      thresh= 1.159E-08 alpha_mix =  0.700 |ddv_scf|^2 =  1.139E-15

     End of self-consistent calculation

     Convergence has been achieved 

     Number of q in the star =    4
     List of q in the star:
          1   0.333333333   0.324592281   0.480316332
          2   0.333333333  -0.324592281  -0.480316332
          3  -0.333333333   0.324592281  -0.480316332
          4  -0.333333333  -0.324592281   0.480316332
     In addition there is the -q list: 
          1  -0.333333333  -0.324592281  -0.480316332
          2  -0.333333333   0.324592281   0.480316332
          3   0.333333333  -0.324592281   0.480316332
          4   0.333333333   0.324592281  -0.480316332

     Diagonalizing the dynamical matrix

     q = (    0.333333333   0.324592281   0.480316332 ) 

 **************************************************************************
     freq (    1) =       1.251052 [THz] =      41.730614 [cm-1]
     freq (    2) =       1.310462 [THz] =      43.712291 [cm-1]
     freq (    3) =       1.770218 [THz] =      59.048122 [cm-1]
     freq (    4) =       2.007002 [THz] =      66.946390 [cm-1]
     freq (    5) =       2.918440 [THz] =      97.348682 [cm-1]
     freq (    6) =       3.019685 [THz] =     100.725866 [cm-1]
     freq (    7) =       4.938128 [THz] =     164.718230 [cm-1]
     freq (    8) =       5.048961 [THz] =     168.415224 [cm-1]
     freq (    9) =       5.756320 [THz] =     192.010173 [cm-1]
     freq (   10) =       6.037884 [THz] =     201.402138 [cm-1]
     freq (   11) =       6.438147 [THz] =     214.753468 [cm-1]
     freq (   12) =       6.447690 [THz] =     215.071784 [cm-1]
     freq (   13) =       6.707431 [THz] =     223.735819 [cm-1]
     freq (   14) =       7.055278 [THz] =     235.338739 [cm-1]
     freq (   15) =       7.536977 [THz] =     251.406484 [cm-1]
     freq (   16) =       7.630669 [THz] =     254.531704 [cm-1]
     freq (   17) =       8.586601 [THz] =     286.418187 [cm-1]
     freq (   18) =       8.621018 [THz] =     287.566208 [cm-1]
     freq (   19) =       8.893895 [THz] =     296.668389 [cm-1]
     freq (   20) =       8.945568 [THz] =     298.392038 [cm-1]
     freq (   21) =       9.651089 [THz] =     321.925668 [cm-1]
     freq (   22) =       9.913836 [THz] =     330.689987 [cm-1]
     freq (   23) =       9.993152 [THz] =     333.335659 [cm-1]
     freq (   24) =      10.033441 [THz] =     334.679557 [cm-1]
     freq (   25) =      10.629486 [THz] =     354.561481 [cm-1]
     freq (   26) =      10.752721 [THz] =     358.672161 [cm-1]
     freq (   27) =      13.353179 [THz] =     445.414120 [cm-1]
     freq (   28) =      13.413795 [THz] =     447.436043 [cm-1]
     freq (   29) =      13.464690 [THz] =     449.133730 [cm-1]
     freq (   30) =      13.565566 [THz] =     452.498561 [cm-1]
     freq (   31) =      30.835230 [THz] =    1028.552557 [cm-1]
     freq (   32) =      30.853310 [THz] =    1029.155653 [cm-1]
     freq (   33) =      31.022082 [THz] =    1034.785263 [cm-1]
     freq (   34) =      31.045479 [THz] =    1035.565710 [cm-1]
     freq (   35) =      31.940030 [THz] =    1065.404726 [cm-1]
     freq (   36) =      31.962160 [THz] =    1066.142903 [cm-1]
     freq (   37) =      31.996424 [THz] =    1067.285823 [cm-1]
     freq (   38) =      32.048395 [THz] =    1069.019404 [cm-1]
     freq (   39) =      32.308343 [THz] =    1077.690312 [cm-1]
     freq (   40) =      32.335924 [THz] =    1078.610313 [cm-1]
     freq (   41) =      32.444943 [THz] =    1082.246791 [cm-1]
     freq (   42) =      32.495199 [THz] =    1083.923177 [cm-1]
     freq (   43) =      35.858744 [THz] =    1196.118939 [cm-1]
     freq (   44) =      35.890825 [THz] =    1197.189063 [cm-1]
     freq (   45) =      36.070861 [THz] =    1203.194427 [cm-1]
     freq (   46) =      36.106981 [THz] =    1204.399249 [cm-1]
     freq (   47) =      36.160355 [THz] =    1206.179621 [cm-1]
     freq (   48) =      36.180126 [THz] =    1206.839111 [cm-1]
     freq (   49) =      36.251152 [THz] =    1209.208273 [cm-1]
     freq (   50) =      36.270552 [THz] =    1209.855380 [cm-1]
     freq (   51) =      68.225555 [THz] =    2275.759563 [cm-1]
     freq (   52) =      68.246439 [THz] =    2276.456165 [cm-1]
     freq (   53) =      68.276008 [THz] =    2277.442475 [cm-1]
     freq (   54) =      68.318615 [THz] =    2278.863699 [cm-1]
     freq (   55) =      70.191559 [THz] =    2341.338397 [cm-1]
     freq (   56) =      70.198285 [THz] =    2341.562735 [cm-1]
     freq (   57) =      70.334157 [THz] =    2346.094936 [cm-1]
     freq (   58) =      70.338099 [THz] =    2346.226448 [cm-1]
     freq (   59) =      70.989489 [THz] =    2367.954453 [cm-1]
     freq (   60) =      70.998995 [THz] =    2368.271555 [cm-1]
     freq (   61) =      71.079549 [THz] =    2370.958538 [cm-1]
     freq (   62) =      71.105126 [THz] =    2371.811704 [cm-1]
     freq (   63) =      71.546312 [THz] =    2386.528090 [cm-1]
     freq (   64) =      71.562277 [THz] =    2387.060620 [cm-1]
     freq (   65) =      71.671744 [THz] =    2390.712052 [cm-1]
     freq (   66) =      71.709995 [THz] =    2391.987972 [cm-1]
 **************************************************************************

     Mode symmetry, C_1 (1)     point group:

     freq (   1-   1) =         41.7  [cm-1]   --> A                  
     freq (   2-   2) =         43.7  [cm-1]   --> A                  
     freq (   3-   3) =         59.0  [cm-1]   --> A                  
     freq (   4-   4) =         66.9  [cm-1]   --> A                  
     freq (   5-   5) =         97.3  [cm-1]   --> A                  
     freq (   6-   6) =        100.7  [cm-1]   --> A                  
     freq (   7-   7) =        164.7  [cm-1]   --> A                  
     freq (   8-   8) =        168.4  [cm-1]   --> A                  
     freq (   9-   9) =        192.0  [cm-1]   --> A                  
     freq (  10-  10) =        201.4  [cm-1]   --> A                  
     freq (  11-  11) =        214.8  [cm-1]   --> A                  
     freq (  12-  12) =        215.1  [cm-1]   --> A                  
     freq (  13-  13) =        223.7  [cm-1]   --> A                  
     freq (  14-  14) =        235.3  [cm-1]   --> A                  
     freq (  15-  15) =        251.4  [cm-1]   --> A                  
     freq (  16-  16) =        254.5  [cm-1]   --> A                  
     freq (  17-  17) =        286.4  [cm-1]   --> A                  
     freq (  18-  18) =        287.6  [cm-1]   --> A                  
     freq (  19-  19) =        296.7  [cm-1]   --> A                  
     freq (  20-  20) =        298.4  [cm-1]   --> A                  
     freq (  21-  21) =        321.9  [cm-1]   --> A                  
     freq (  22-  22) =        330.7  [cm-1]   --> A                  
     freq (  23-  23) =        333.3  [cm-1]   --> A                  
     freq (  24-  24) =        334.7  [cm-1]   --> A                  
     freq (  25-  25) =        354.6  [cm-1]   --> A                  
     freq (  26-  26) =        358.7  [cm-1]   --> A                  
     freq (  27-  27) =        445.4  [cm-1]   --> A                  
     freq (  28-  28) =        447.4  [cm-1]   --> A                  
     freq (  29-  29) =        449.1  [cm-1]   --> A                  
     freq (  30-  30) =        452.5  [cm-1]   --> A                  
     freq (  31-  31) =       1028.6  [cm-1]   --> A                  
     freq (  32-  32) =       1029.2  [cm-1]   --> A                  
     freq (  33-  33) =       1034.8  [cm-1]   --> A                  
     freq (  34-  34) =       1035.6  [cm-1]   --> A                  
     freq (  35-  35) =       1065.4  [cm-1]   --> A                  
     freq (  36-  36) =       1066.1  [cm-1]   --> A                  
     freq (  37-  37) =       1067.3  [cm-1]   --> A                  
     freq (  38-  38) =       1069.0  [cm-1]   --> A                  
     freq (  39-  39) =       1077.7  [cm-1]   --> A                  
     freq (  40-  40) =       1078.6  [cm-1]   --> A                  
     freq (  41-  41) =       1082.2  [cm-1]   --> A                  
     freq (  42-  42) =       1083.9  [cm-1]   --> A                  
     freq (  43-  43) =       1196.1  [cm-1]   --> A                  
     freq (  44-  44) =       1197.2  [cm-1]   --> A                  
     freq (  45-  45) =       1203.2  [cm-1]   --> A                  
     freq (  46-  46) =       1204.4  [cm-1]   --> A                  
     freq (  47-  47) =       1206.2  [cm-1]   --> A                  
     freq (  48-  48) =       1206.8  [cm-1]   --> A                  
     freq (  49-  49) =       1209.2  [cm-1]   --> A                  
     freq (  50-  50) =       1209.9  [cm-1]   --> A                  
     freq (  51-  51) =       2275.8  [cm-1]   --> A                  
     freq (  52-  52) =       2276.5  [cm-1]   --> A                  
     freq (  53-  53) =       2277.4  [cm-1]   --> A                  
     freq (  54-  54) =       2278.9  [cm-1]   --> A                  
     freq (  55-  55) =       2341.3  [cm-1]   --> A                  
     freq (  56-  56) =       2341.6  [cm-1]   --> A                  
     freq (  57-  57) =       2346.1  [cm-1]   --> A                  
     freq (  58-  58) =       2346.2  [cm-1]   --> A                  
     freq (  59-  59) =       2368.0  [cm-1]   --> A                  
     freq (  60-  60) =       2368.3  [cm-1]   --> A                  
     freq (  61-  61) =       2371.0  [cm-1]   --> A                  
     freq (  62-  62) =       2371.8  [cm-1]   --> A                  
     freq (  63-  63) =       2386.5  [cm-1]   --> A                  
     freq (  64-  64) =       2387.1  [cm-1]   --> A                  
     freq (  65-  65) =       2390.7  [cm-1]   --> A                  
     freq (  66-  66) =       2392.0  [cm-1]   --> A                  

     init_run     :      8.43s CPU      8.67s WALL (       7 calls)
     electrons    :   5052.53s CPU   5090.77s WALL (       7 calls)

     Called by init_run:
     wfcinit      :      0.00s CPU      0.00s WALL (       7 calls)
     potinit      :      1.01s CPU      1.12s WALL (       7 calls)
     hinit0       :      0.82s CPU      0.84s WALL (       7 calls)

     Called by electrons:
     c_bands      :   5052.53s CPU   5090.77s WALL (       7 calls)
     v_of_rho     :      0.95s CPU      1.01s WALL (       8 calls)
     newd         :      1.47s CPU      1.50s WALL (       8 calls)

     Called by c_bands:
     init_us_2    :   2199.79s CPU   2402.86s WALL (  443799 calls)
     cegterg      :   4628.48s CPU   4660.92s WALL (    2773 calls)

     Called by *egterg:
     cdiaghg      :    146.78s CPU    147.52s WALL (   32133 calls)
     h_psi        : 545261.23s CPU 550014.46s WALL ( 5603898 calls)
     s_psi        : 208179.36s CPU 209122.78s WALL (11514468 calls)
     g_psi        :     11.13s CPU     11.20s WALL (   30743 calls)

     Called by h_psi:
     h_psi:calbec :  86418.16s CPU  86890.60s WALL ( 5603898 calls)
     vloc_psi     : 355484.06s CPU 359292.94s WALL ( 5603898 calls)
     add_vuspsi   : 100734.77s CPU 101205.07s WALL ( 5603898 calls)

     General routines
     calbec       : 188857.23s CPU 189885.16s WALL (12189842 calls)
     fft          :    843.84s CPU    906.86s WALL (  101935 calls)
     ffts         :   1701.37s CPU   1735.91s WALL (   92698 calls)
     fftw         : 363736.24s CPU 367827.65s WALL (******** calls)
     interpolate  :     64.80s CPU     75.37s WALL (    7954 calls)
     davcio       :    842.21s CPU   1268.53s WALL ( 1905099 calls)

     Parallel routines

     PHONON       :  11d11h40m CPU  11d14h15m WALL

     INITIALIZATION: 
     phq_setup    :      2.84s CPU      3.44s WALL (       8 calls)
     phq_init     :   4215.10s CPU   4255.02s WALL (       8 calls)

     phq_init     :   4215.10s CPU   4255.02s WALL (       8 calls)
     set_drhoc    :      0.10s CPU      0.11s WALL (      24 calls)
     init_vloc    :      0.16s CPU      0.16s WALL (       8 calls)
     init_us_1    :      0.17s CPU      0.22s WALL (       8 calls)
     init_us_2    :   2199.79s CPU   2402.86s WALL (  443799 calls)
     newd         :      1.47s CPU      1.50s WALL (       8 calls)
     dvanqq       :    170.49s CPU    172.53s WALL (       8 calls)
     drho         :   3785.01s CPU   3821.19s WALL (       8 calls)
     drhous       :   3453.49s CPU   3484.14s WALL (       8 calls)
     nldyntot     :     83.94s CPU     84.03s WALL (       8 calls)

     DYNAMICAL MATRIX:
     dynmat0      :    202.19s CPU    203.05s WALL (       8 calls)
     dynmat_us    :    155.97s CPU    156.67s WALL (       8 calls)
     addusdynmat  :      0.02s CPU      0.06s WALL (       8 calls)
     d2ionq       :     43.86s CPU     43.91s WALL (       8 calls)
     dynmatcc     :      2.21s CPU      2.31s WALL (       8 calls)
     phqscf       : 978647.66s CPU 987818.18s WALL (       8 calls)
     dynmatrix    :      0.75s CPU      0.95s WALL (       8 calls)

     phqscf       : 978647.66s CPU 987818.18s WALL (       8 calls)
     solve_linter : 972752.30s CPU 981781.19s WALL (     527 calls)
     sth_kernel   : 945837.01s CPU 953954.28s WALL (    3684 calls)
     h_prec       :    669.92s CPU    675.07s WALL (  340729 calls)
     apply_dpot_b :  21911.20s CPU  22374.75s WALL (  293683 calls)
     ortho        :  14907.57s CPU  15021.42s WALL (  341497 calls)
     cgsolve      : 871125.39s CPU 877552.75s WALL (  341497 calls)
     incdrhoscf   :  34078.14s CPU  34677.17s WALL (  341497 calls)
                                        0.00s GPU  (  341497 calls)
     addusddens   :   1327.47s CPU   1345.46s WALL (    4204 calls)
     dv_of_drho   :    353.15s CPU    386.18s WALL (    3707 calls)
     mix_pot      :     40.24s CPU    108.79s WALL (    3684 calls)
     drhodv       :   4360.87s CPU   4407.74s WALL (     527 calls)
     psymdvscf    :   1685.36s CPU   1741.76s WALL (    1741 calls)
     newdq        :   1564.25s CPU   1574.15s WALL (    3684 calls)
     adddvscf     :    981.02s CPU    998.72s WALL (  293683 calls)
     drhodvus     :     23.02s CPU     45.58s WALL (     527 calls)

     dvqpsi_us    :  23959.79s CPU  24066.08s WALL (   49434 calls)
                                        0.00s GPU  (   49434 calls)
     dvqpsi_us_on :  18628.68s CPU  18668.93s WALL (   49434 calls)

     add_vuspsi   : 100734.77s CPU 101205.07s WALL ( 5603898 calls)
     addusdbec    :   6893.62s CPU   6932.64s WALL (  389149 calls)

     drhodvus     :     23.02s CPU     45.58s WALL (     527 calls)

      General routines
     calbec       : 188857.23s CPU 189885.16s WALL (12189842 calls)
     fft          :    843.84s CPU    906.86s WALL (  101935 calls)
     ffts         :   1701.37s CPU   1735.91s WALL (   92698 calls)
     fftw         : 363736.24s CPU 367827.65s WALL (******** calls)
     davcio       :    842.21s CPU   1268.53s WALL ( 1905099 calls)
     write_rec    :     70.90s CPU    668.43s WALL (    4211 calls)

      Additional routines
     ch_psi       : 861846.18s CPU 868131.84s WALL ( 5568992 calls)
     last         : 215371.02s CPU 216471.08s WALL ( 5568992 calls)
     Hesh         :   1448.01s CPU   1464.06s WALL ( 5568992 calls)
     ch_psi_all_k : 213833.92s CPU 214926.63s WALL ( 5568992 calls)
                                        0.00s GPU  ( 5568992 calls)
     ch_psi_calbe :  84848.09s CPU  85212.46s WALL ( 5568992 calls)
                                        0.00s GPU  ( 5568992 calls)
     h_psi_bgrp   : 545310.44s CPU 550053.98s WALL ( 5603898 calls)
     h_psi        : 545261.23s CPU 550014.46s WALL ( 5603898 calls)
     h_psi:pot    : 542777.54s CPU 547488.04s WALL ( 5603898 calls)
     h_psi:calbec :  86418.16s CPU  86890.60s WALL ( 5603898 calls)
     s_psi_bgrp   : 210668.83s CPU 211574.83s WALL (11514468 calls)
     s_psi        : 208179.36s CPU 209122.78s WALL (11514468 calls)


     PHONON       :  11d11h40m CPU  11d14h15m WALL


   This run was terminated on:   2:35:59  24Jul2024            

=------------------------------------------------------------------------------=
   JOB DONE.
=------------------------------------------------------------------------------=
