
     Program PWSCF v.7.3.1 starts on 12Jul2024 at 12:17:12 

     This program is part of the open-source Quantum ESPRESSO suite
     for quantum simulation of materials; please cite
         "P. Giannozzi et al., J. Phys.:Condens. Matter 21 395502 (2009);
         "P. Giannozzi et al., J. Phys.:Condens. Matter 29 465901 (2017);
         "P. Giannozzi et al., J. Chem. Phys. 152 154105 (2020);
          URL http://www.quantum-espresso.org", 
     in publications or presentations arising from this work. More details at
     http://www.quantum-espresso.org/quote

     Parallel version (MPI), running on    24 processors

     MPI processes distributed on     1 nodes
     94158 MiB available memory on the printing compute node when the environment starts

     Waiting for input...
     Reading input from standard input

     Current dimensions of program PWSCF are:
     Max number of different atomic species (ntypx) = 10
     Max number of k-points (npk) =  40000
     Max angular momentum in pseudopotentials (lmaxx) =  4

     R & G space division:  proc/nbgrp/npool/nimage =      24
     Subspace diagonalization in iterative solution of the eigenvalue problem:
     a serial algorithm will be used


     Parallelization info
     --------------------
     sticks:   dense  smooth     PW     G-vecs:    dense   smooth      PW
     Min         431     215     57                22601     7991    1121
     Max         432     217     58                22604     7992    1124
     Sum       10361    5183   1391               542467   191793   26947

     Using Slab Decomposition


     Title: 
     pre-ph                                                                     


     bravais-lattice index     =            8
     lattice parameter (alat)  =      12.5829  a.u.
     unit-cell volume          =    1419.8354 (a.u.)^3
     number of atoms/cell      =           22
     number of atomic types    =            3
     number of electrons       =        48.00
     number of Kohn-Sham states=           24
     kinetic-energy cutoff     =     100.0000  Ry
     charge density cutoff     =     800.0000  Ry
     scf convergence threshold =      1.0E-10
     mixing beta               =       0.7000
     number of iterations used =            8  plain     mixing
     Exchange-correlation= PBESOL
                           (   1   4  10   8   0   0   0)

     celldm(1)=  12.582937  celldm(2)=   1.026929  celldm(3)=   0.693987
     celldm(4)=   0.000000  celldm(5)=   0.000000  celldm(6)=   0.000000

     crystal axes: (cart. coord. in units of alat)
               a(1) = (   1.000000   0.000000   0.000000 )  
               a(2) = (   0.000000   1.026929   0.000000 )  
               a(3) = (   0.000000   0.000000   0.693987 )  

     reciprocal axes: (cart. coord. in units 2 pi/alat)
               b(1) = (  1.000000  0.000000  0.000000 )  
               b(2) = (  0.000000  0.973777  0.000000 )  
               b(3) = (  0.000000  0.000000  1.440949 )  


     PseudoPot. # 1 for B  read from file:
     /home/mehlhorn/pseudos/b_pbesol_v1.4.uspp.F.UPF
     MD5 check sum: 369b69bef2c3aeed4453bd8b804fd6a8
     Pseudo is Ultrasoft + core correction, Zval =  3.0
     Generated by new atomic code, or converted to UPF format
     Using radial grid of  781 points,  4 beta functions with: 
                l(1) =   0
                l(2) =   0
                l(3) =   1
                l(4) =   1
     Q(r) pseudized with  8 coefficients,  rinner =    1.100   1.100   1.100


     PseudoPot. # 2 for Ba read from file:
     /home/mehlhorn/pseudos/Ba.nc.z_10.oncvpsp4.dojo.v4-sp.upf
     MD5 check sum: c10ed334bb677c0554edec7181ce9143
     Pseudo is Norm-conserving + core correction, Zval = 10.0
     Generated using ONCVPSP code by D. R. Hamann
     Using radial grid of 1938 points,  8 beta functions with: 
                l(1) =   0
                l(2) =   0
                l(3) =   1
                l(4) =   1
                l(5) =   2
                l(6) =   2
                l(7) =   3
                l(8) =   3

     PseudoPot. # 3 for H  read from file:
     /home/mehlhorn/pseudos/H_ONCV_PBEsol-1.0.upf
     MD5 check sum: 398ef8f67c0a7342c05c87c5e19ea467
     Pseudo is Norm-conserving, Zval =  1.0
     Generated using ONCVPSP code by D. R. Hamann
     Using radial grid of 1180 points,  2 beta functions with: 
                l(1) =   0
                l(2) =   0

     atomic species   valence    mass     pseudopotential
     B                 3.00    10.81100     B ( 1.00)
     Ba               10.00   137.32700     Ba( 1.00)
     H                 1.00     1.00794     H ( 1.00)

      4 Sym. Ops. (no inversion) found ( 2 have fractional translation)



   Cartesian axes

     site n.     atom                  positions (alat units)
         1        Ba     tau(   1) = (   0.5000000   0.5134647   0.3469898  )
         2        Ba     tau(   2) = (   0.0000000   0.0000000   0.6939909  )
         3        B      tau(   3) = (   0.6095003   0.2450902  -0.0000015  )
         4        B      tau(   4) = (   0.3904997   0.7818391  -0.0000015  )
         5        B      tau(   5) = (   0.1095003   0.2683745   0.3469951  )
         6        B      tau(   6) = (   0.8904997   0.7585549   0.3469951  )
         7        H      tau(   7) = (   0.4330247   0.3000904   0.0000153  )
         8        H      tau(   8) = (   0.5669753   0.7268389   0.0000153  )
         9        H      tau(   9) = (   0.9330247   0.2133743   0.3469783  )
        10        H      tau(  10) = (   0.0669753   0.8135551   0.3469783  )
        11        H      tau(  11) = (   0.7220942   0.3932127  -0.0000084  )
        12        H      tau(  12) = (   0.2779058   0.6337166  -0.0000084  )
        13        H      tau(  13) = (   0.2220942   0.1202519   0.3470019  )
        14        H      tau(  14) = (   0.7779058   0.9066774   0.3470019  )
        15        H      tau(  15) = (   0.6383892   0.1451203   0.5415683  )
        16        H      tau(  16) = (   0.3616108   0.8818090   0.5415683  )
        17        H      tau(  17) = (   0.1383892   0.3683443   0.4994124  )
        18        H      tau(  18) = (   0.8616108   0.6585850   0.4994124  )
        19        H      tau(  19) = (   0.3615790   0.8818057   0.1524120  )
        20        H      tau(  20) = (   0.6384210   0.1451236   0.1524120  )
        21        H      tau(  21) = (   0.8615790   0.6585883   0.1945816  )
        22        H      tau(  22) = (   0.1384210   0.3683410   0.1945816  )

     number of k points=    27
                       cart. coord. in units 2pi/alat
        k(    1) = (   0.0000000   0.0000000   0.0000000), wk =   0.0160000
        k(    2) = (   0.0000000   0.0000000   0.2881898), wk =   0.0320000
        k(    3) = (   0.0000000   0.0000000   0.5763796), wk =   0.0320000
        k(    4) = (   0.0000000   0.1947554   0.0000000), wk =   0.0320000
        k(    5) = (   0.0000000   0.1947554   0.2881898), wk =   0.0640000
        k(    6) = (   0.0000000   0.1947554   0.5763796), wk =   0.0640000
        k(    7) = (   0.0000000   0.3895107   0.0000000), wk =   0.0320000
        k(    8) = (   0.0000000   0.3895107   0.2881898), wk =   0.0640000
        k(    9) = (   0.0000000   0.3895107   0.5763796), wk =   0.0640000
        k(   10) = (   0.2000000   0.0000000   0.0000000), wk =   0.0320000
        k(   11) = (   0.2000000   0.0000000   0.2881898), wk =   0.0640000
        k(   12) = (   0.2000000   0.0000000   0.5763796), wk =   0.0640000
        k(   13) = (   0.2000000   0.1947554   0.0000000), wk =   0.0640000
        k(   14) = (   0.2000000   0.1947554   0.2881898), wk =   0.1280000
        k(   15) = (   0.2000000   0.1947554   0.5763796), wk =   0.1280000
        k(   16) = (   0.2000000   0.3895107   0.0000000), wk =   0.0640000
        k(   17) = (   0.2000000   0.3895107   0.2881898), wk =   0.1280000
        k(   18) = (   0.2000000   0.3895107   0.5763796), wk =   0.1280000
        k(   19) = (   0.4000000   0.0000000   0.0000000), wk =   0.0320000
        k(   20) = (   0.4000000   0.0000000   0.2881898), wk =   0.0640000
        k(   21) = (   0.4000000   0.0000000   0.5763796), wk =   0.0640000
        k(   22) = (   0.4000000   0.1947554   0.0000000), wk =   0.0640000
        k(   23) = (   0.4000000   0.1947554   0.2881898), wk =   0.1280000
        k(   24) = (   0.4000000   0.1947554   0.5763796), wk =   0.1280000
        k(   25) = (   0.4000000   0.3895107   0.0000000), wk =   0.0640000
        k(   26) = (   0.4000000   0.3895107   0.2881898), wk =   0.1280000
        k(   27) = (   0.4000000   0.3895107   0.5763796), wk =   0.1280000

     Dense  grid:   542467 G-vectors     FFT dimensions: ( 120, 120,  80)

     Smooth grid:   191793 G-vectors     FFT dimensions: (  90,  90,  60)

     Estimated max dynamical RAM per process >      66.26 MB

     Estimated total dynamical RAM >       1.55 GB

     Initial potential from superposition of free atoms

     starting charge      47.9682, renormalised to      48.0000
     Starting wfcs are   42 randomized atomic wfcs

     total cpu time spent up to now is       11.2 secs

     Self-consistent Calculation

     iteration #  1     ecut=   100.00 Ry     beta= 0.70
     Davidson diagonalization with overlap
     ethr =  1.00E-02,  avg # of iterations =  2.0

     total cpu time spent up to now is       25.9 secs

     total energy              =    -155.92857393 Ry
     estimated scf accuracy    <       2.08290566 Ry

     iteration #  2     ecut=   100.00 Ry     beta= 0.70
     Davidson diagonalization with overlap
     ethr =  4.34E-03,  avg # of iterations =  2.0

     total cpu time spent up to now is       40.0 secs

     total energy              =    -156.40952565 Ry
     estimated scf accuracy    <       0.36963133 Ry

     iteration #  3     ecut=   100.00 Ry     beta= 0.70
     Davidson diagonalization with overlap
     ethr =  7.70E-04,  avg # of iterations =  2.0

     total cpu time spent up to now is       54.1 secs

     total energy              =    -156.47110396 Ry
     estimated scf accuracy    <       0.00488066 Ry

     iteration #  4     ecut=   100.00 Ry     beta= 0.70
     Davidson diagonalization with overlap
     ethr =  1.02E-05,  avg # of iterations =  5.2

     total cpu time spent up to now is       74.7 secs

     total energy              =    -156.47419745 Ry
     estimated scf accuracy    <       0.00169465 Ry

     iteration #  5     ecut=   100.00 Ry     beta= 0.70
     Davidson diagonalization with overlap
     ethr =  3.53E-06,  avg # of iterations =  3.3

     total cpu time spent up to now is       89.3 secs

     total energy              =    -156.47478378 Ry
     estimated scf accuracy    <       0.00016757 Ry

     iteration #  6     ecut=   100.00 Ry     beta= 0.70
     Davidson diagonalization with overlap
     ethr =  3.49E-07,  avg # of iterations =  4.3

     total cpu time spent up to now is      105.8 secs

     total energy              =    -156.47484859 Ry
     estimated scf accuracy    <       0.00000127 Ry

     iteration #  7     ecut=   100.00 Ry     beta= 0.70
     Davidson diagonalization with overlap
     ethr =  2.64E-09,  avg # of iterations =  9.2

     total cpu time spent up to now is      139.2 secs

     total energy              =    -156.47485894 Ry
     estimated scf accuracy    <       0.00000096 Ry

     iteration #  8     ecut=   100.00 Ry     beta= 0.70
     Davidson diagonalization with overlap
     ethr =  2.00E-09,  avg # of iterations =  2.1

     total cpu time spent up to now is      153.4 secs

     total energy              =    -156.47485918 Ry
     estimated scf accuracy    <       0.00000004 Ry

     iteration #  9     ecut=   100.00 Ry     beta= 0.70
     Davidson diagonalization with overlap
     ethr =  8.90E-11,  avg # of iterations =  5.4

     total cpu time spent up to now is      171.0 secs

     total energy              =    -156.47485920 Ry
     estimated scf accuracy    <          4.1E-09 Ry

     iteration # 10     ecut=   100.00 Ry     beta= 0.70
     Davidson diagonalization with overlap
     ethr =  8.57E-12,  avg # of iterations =  4.4

     total cpu time spent up to now is      188.4 secs

     total energy              =    -156.47485920 Ry
     estimated scf accuracy    <          1.0E-09 Ry

     iteration # 11     ecut=   100.00 Ry     beta= 0.70
     Davidson diagonalization with overlap
     ethr =  2.11E-12,  avg # of iterations =  2.7

     total cpu time spent up to now is      202.9 secs

     End of self-consistent calculation

          k = 0.0000 0.0000 0.0000 ( 23963 PWs)   bands (ev):

   -23.7276 -23.7177  -9.3071  -9.2111  -9.0009  -8.9592  -8.9313  -8.8624
    -5.9610  -4.9831  -4.2578  -4.1081  -1.6612  -0.7364  -0.6513  -0.3068
     0.0870   0.1158   0.1515   0.2829   0.4388   0.8692   0.8841   0.9275

          k = 0.0000 0.0000 0.2882 ( 23956 PWs)   bands (ev):

   -23.7218 -23.7138  -9.2385  -9.1630  -9.1237  -9.0881  -8.9863  -8.9577
    -5.5977  -4.7827  -4.3859  -4.2745  -1.3775  -0.9318  -0.5799  -0.4038
    -0.2506  -0.1365   0.1686   0.3800   0.7143   0.7365   0.7426   0.9408

          k = 0.0000 0.0000 0.5764 ( 24000 PWs)   bands (ev):

   -23.7115 -23.7084  -9.3950  -9.3885  -9.0962  -9.0665  -8.9838  -8.9743
    -4.9365  -4.5953  -4.5898  -4.5541  -1.1164  -1.0705  -0.8625  -0.8077
    -0.1763  -0.0749   0.2483   0.3290   0.6557   0.6852   0.8307   0.8461

          k = 0.0000 0.1948 0.0000 ( 23965 PWs)   bands (ev):

   -23.7266 -23.7186  -9.2871  -9.1893  -9.0410  -8.9846  -8.9246  -8.8688
    -5.8233  -4.9158  -4.4674  -4.2001  -1.4031  -0.7987  -0.7977  -0.0676
     0.0099   0.0315   0.2651   0.4163   0.5146   0.6658   0.8108   0.8673

          k = 0.0000 0.1948 0.2882 ( 23974 PWs)   bands (ev):

   -23.7210 -23.7145  -9.2379  -9.1498  -9.1136  -9.1033  -8.9871  -8.9756
    -5.5003  -4.7591  -4.5090  -4.3275  -1.2096  -0.9628  -0.7605  -0.1854
    -0.1312  -0.0614  -0.0169   0.4828   0.6834   0.6859   0.7401   0.8235

          k = 0.0000 0.1948 0.5764 ( 23958 PWs)   bands (ev):

   -23.7112 -23.7087  -9.4068  -9.4004  -9.0721  -9.0535  -8.9840  -8.9809
    -5.0339  -4.8693  -4.4268  -4.3391  -1.1142  -1.0563  -0.9480  -0.7066
    -0.0627   0.0495   0.2007   0.3388   0.5693   0.6679   0.7212   0.8289

          k = 0.0000 0.3895 0.0000 ( 23971 PWs)   bands (ev):

   -23.7241 -23.7211  -9.2279  -9.1488  -9.1135  -9.0488  -8.9071  -8.8858
    -5.4578  -4.9850  -4.6692  -4.4263  -0.9966  -0.9332  -0.6599  -0.0759
    -0.0705   0.0333   0.2936   0.5021   0.5508   0.5871   0.6680   0.7833

          k = 0.0000 0.3895 0.2882 ( 23959 PWs)   bands (ev):

   -23.7190 -23.7165  -9.2213  -9.1792  -9.0961  -9.0690  -9.0137  -9.0038
    -5.2386  -4.9016  -4.5829  -4.4545  -0.9885  -0.9549  -0.7655  -0.3570
     0.0148   0.0945   0.1852   0.4120   0.5017   0.5516   0.7622   0.7653

          k = 0.0000 0.3895 0.5764 ( 23946 PWs)   bands (ev):

   -23.7104 -23.7095  -9.4223  -9.4194  -9.0270  -9.0268  -8.9983  -8.9928
    -5.1197  -5.0659  -4.2598  -4.2139  -1.1765  -1.1566  -0.7256  -0.5506
     0.0522   0.0577   0.2297   0.3106   0.4748   0.5265   0.6788   0.7770

          k = 0.2000 0.0000 0.0000 ( 23978 PWs)   bands (ev):

   -23.7266 -23.7186  -9.2797  -9.1990  -9.0322  -8.9983  -8.9246  -8.8688
    -5.8279  -4.9937  -4.2875  -4.2259  -1.5311  -0.6004  -0.5355  -0.5025
     0.1146   0.1589   0.2499   0.2668   0.4142   0.5385   0.8808   0.8909

          k = 0.2000 0.0000 0.2882 ( 23964 PWs)   bands (ev):

   -23.7210 -23.7145  -9.2192  -9.1901  -9.1119  -9.0863  -9.0064  -8.9621
    -5.4844  -4.7738  -4.4127  -4.3770  -1.2852  -0.9653  -0.6078  -0.4044
    -0.2417  -0.0393   0.2326   0.4222   0.4699   0.6859   0.8532   0.8972

          k = 0.2000 0.0000 0.5764 ( 24002 PWs)   bands (ev):

   -23.7112 -23.7087  -9.4102  -9.4044  -9.0804  -9.0480  -8.9904  -8.9751
    -4.9013  -4.6814  -4.5747  -4.4824  -1.4329  -1.2365  -0.7856  -0.4877
    -0.1321   0.1433   0.2356   0.4036   0.5617   0.6829   0.7425   0.8576

          k = 0.2000 0.1948 0.0000 ( 23972 PWs)   bands (ev):

   -23.7258 -23.7193  -9.2921  -9.1530  -9.1081  -8.9687  -8.9191  -8.8739
    -5.7178  -4.9440  -4.4971  -4.2538  -1.3094  -0.7840  -0.6410  -0.1936
    -0.0167   0.0386   0.3967   0.4101   0.4797   0.5253   0.6947   0.8486

          k = 0.2000 0.1948 0.2882 ( 23967 PWs)   bands (ev):

   -23.7204 -23.7151  -9.2303  -9.1763  -9.1341  -9.0676  -9.0112  -8.9628
    -5.4009  -4.7388  -4.5661  -4.3845  -1.1672  -0.9602  -0.7595  -0.2732
    -0.1473   0.0048   0.1715   0.4198   0.5123   0.6486   0.7763   0.8666

          k = 0.2000 0.1948 0.5764 ( 24003 PWs)   bands (ev):

   -23.7109 -23.7089  -9.4205  -9.3950  -9.0927  -9.0222  -8.9984  -8.9787
    -5.0011  -4.7851  -4.5196  -4.3259  -1.3945  -1.2356  -0.7366  -0.5130
    -0.0784   0.1267   0.2452   0.4077   0.5331   0.6508   0.7172   0.8384

          k = 0.2000 0.3895 0.0000 ( 23954 PWs)   bands (ev):

   -23.7238 -23.7213  -9.2765  -9.2117  -9.0625  -8.9916  -8.9048  -8.8876
    -5.4195  -5.0383  -4.6329  -4.4336  -0.9255  -0.8852  -0.6047  -0.1108
    -0.0887  -0.0193   0.2008   0.5369   0.5719   0.6166   0.6399   0.6771

          k = 0.2000 0.3895 0.2882 ( 23953 PWs)   bands (ev):

   -23.7187 -23.7167  -9.2303  -9.2014  -9.1150  -9.0697  -9.0024  -8.9737
    -5.1746  -4.8718  -4.6198  -4.4885  -1.0472  -0.9552  -0.6963  -0.3670
     0.0345   0.0885   0.1946   0.4171   0.4467   0.5706   0.7460   0.7795

          k = 0.2000 0.3895 0.5764 ( 23973 PWs)   bands (ev):

   -23.7103 -23.7095  -9.4178  -9.4026  -9.0760  -9.0355  -8.9922  -8.9818
    -5.0566  -4.9772  -4.3320  -4.2528  -1.3195  -1.2549  -0.6260  -0.5238
    -0.0414   0.0942   0.2391   0.3813   0.5514   0.6233   0.6755   0.7765

          k = 0.4000 0.0000 0.0000 ( 24008 PWs)   bands (ev):

   -23.7241 -23.7210  -9.2065  -9.1579  -9.1111  -9.0821  -8.9071  -8.8858
    -5.4958  -5.1436  -4.3727  -4.3540  -1.2137  -0.8422  -0.3917  -0.0650
     0.0198   0.1475   0.1894   0.2287   0.3358   0.3704   0.6861   0.7848

          k = 0.4000 0.0000 0.2882 ( 23975 PWs)   bands (ev):

   -23.7190 -23.7165  -9.2027  -9.1909  -9.1311  -9.0789  -9.0187  -8.9831
    -5.1949  -4.8755  -4.5119  -4.4758  -1.1177  -0.9082  -0.7902  -0.4066
    -0.0935   0.1393   0.1530   0.2318   0.5131   0.6297   0.8391   0.8521

          k = 0.4000 0.0000 0.5764 ( 24017 PWs)   bands (ev):

   -23.7104 -23.7094  -9.4314  -9.4289  -9.0473  -9.0220  -9.0018  -8.9834
    -4.8359  -4.7688  -4.5160  -4.4589  -1.6234  -1.5440  -0.4733  -0.2765
    -0.0265   0.1066   0.2616   0.3621   0.6210   0.6741   0.7577   0.8339

          k = 0.4000 0.1948 0.0000 ( 23959 PWs)   bands (ev):

   -23.7238 -23.7213  -9.2733  -9.2090  -9.0717  -8.9996  -8.9048  -8.8876
    -5.4470  -5.1317  -4.4740  -4.3659  -1.0786  -0.8460  -0.3360  -0.1552
    -0.0248   0.0057   0.0906   0.3234   0.4474   0.5047   0.6477   0.7660

          k = 0.4000 0.1948 0.2882 ( 23981 PWs)   bands (ev):

   -23.7187 -23.7167  -9.2253  -9.2046  -9.1283  -9.0791  -8.9992  -8.9696
    -5.1473  -4.8544  -4.5878  -4.4910  -1.0986  -0.9423  -0.7426  -0.3918
    -0.0787   0.1381   0.2076   0.3269   0.4728   0.6024   0.7733   0.8310

          k = 0.4000 0.1948 0.5764 ( 24000 PWs)   bands (ev):

   -23.7103 -23.7095  -9.4238  -9.4089  -9.0792  -9.0391  -8.9911  -8.9810
    -4.8899  -4.7383  -4.5469  -4.3938  -1.5652  -1.5000  -0.4886  -0.3767
    -0.0251   0.0918   0.2627   0.4082   0.6013   0.6696   0.7642   0.8443

          k = 0.4000 0.3895 0.0000 ( 23945 PWs)   bands (ev):

   -23.7230 -23.7221  -9.3123  -9.2891  -8.9877  -8.9584  -8.8990  -8.8924
    -5.3145  -5.1704  -4.5459  -4.4688  -0.8159  -0.7959  -0.4393  -0.2052
    -0.1454  -0.1335   0.1796   0.4007   0.5684   0.6117   0.6207   0.6430

          k = 0.4000 0.3895 0.2882 ( 23978 PWs)   bands (ev):

   -23.7181 -23.7173  -9.2463  -9.2369  -9.1102  -9.0898  -8.9680  -8.9564
    -5.0205  -4.8754  -4.6490  -4.5708  -1.0531  -0.9847  -0.6564  -0.5052
     0.1162   0.2502   0.2678   0.3926   0.4233   0.5793   0.6397   0.7167

          k = 0.4000 0.3895 0.5764 ( 23993 PWs)   bands (ev):

   -23.7100 -23.7097  -9.3972  -9.3859  -9.1068  -9.0845  -8.9819  -8.9803
    -4.8960  -4.8268  -4.4496  -4.3785  -1.4353  -1.4068  -0.6341  -0.6204
     0.1089   0.2486   0.3484   0.3922   0.5571   0.5815   0.7592   0.7998

     highest occupied level (ev):     0.9408

!    total energy              =    -156.47485920 Ry
     estimated scf accuracy    <          3.7E-11 Ry

     The total energy is the sum of the following terms:
     one-electron contribution =     -20.95913434 Ry
     hartree contribution      =      25.09259007 Ry
     xc contribution           =     -49.15354946 Ry
     ewald contribution        =    -111.45476546 Ry

     convergence has been achieved in  11 iterations

     Writing all to output data dir ./pwscf.save/ :
     XML data file, charge density, pseudopotentials, collected wavefunctions

     init_run     :      9.34s CPU     10.73s WALL (       1 calls)
     electrons    :    190.10s CPU    191.76s WALL (       1 calls)

     Called by init_run:
     wfcinit      :      6.83s CPU      6.87s WALL (       1 calls)
     potinit      :      0.57s CPU      1.04s WALL (       1 calls)
     hinit0       :      1.07s CPU      1.89s WALL (       1 calls)

     Called by electrons:
     c_bands      :    168.12s CPU    169.32s WALL (      11 calls)
     sum_band     :     18.41s CPU     18.73s WALL (      11 calls)
     v_of_rho     :      1.39s CPU      1.45s WALL (      12 calls)
     newd         :      2.10s CPU      2.13s WALL (      12 calls)
     mix_rho      :      0.21s CPU      0.22s WALL (      11 calls)

     Called by c_bands:
     init_us_2    :      3.70s CPU      3.76s WALL (     621 calls)
     cegterg      :    149.74s CPU    150.89s WALL (     297 calls)

     Called by *egterg:
     cdiaghg      :      2.76s CPU      2.78s WALL (    1445 calls)
     h_psi        :    106.86s CPU    107.86s WALL (    1472 calls)
     s_psi        :     21.72s CPU     21.80s WALL (    1472 calls)
     g_psi        :      0.41s CPU      0.41s WALL (    1148 calls)

     Called by h_psi:
     h_psi:calbec :     18.69s CPU     18.79s WALL (    1472 calls)
     vloc_psi     :     65.98s CPU     66.79s WALL (    1472 calls)
     add_vuspsi   :     21.83s CPU     21.92s WALL (    1472 calls)

     General routines
     calbec       :     23.73s CPU     23.88s WALL (    1769 calls)
     fft          :      1.74s CPU      2.59s WALL (     154 calls)
     ffts         :      0.47s CPU      0.92s WALL (      23 calls)
     fftw         :     64.02s CPU     64.78s WALL (   57938 calls)
     interpolate  :      0.52s CPU      0.97s WALL (      12 calls)

     Parallel routines

     PWSCF        :   3m20.29s CPU   3m24.15s WALL


   This run was terminated on:  12:20:36  12Jul2024            

=------------------------------------------------------------------------------=
   JOB DONE.
=------------------------------------------------------------------------------=
