
     Program Q2R v.7.3.1 starts on 24Jul2024 at  2:36: 2 

     This program is part of the open-source Quantum ESPRESSO suite
     for quantum simulation of materials; please cite
         "P. Giannozzi et al., J. Phys.:Condens. Matter 21 395502 (2009);
         "P. Giannozzi et al., J. Phys.:Condens. Matter 29 465901 (2017);
         "P. Giannozzi et al., J. Chem. Phys. 152 154105 (2020);
          URL http://www.quantum-espresso.org", 
     in publications or presentations arising from this work. More details at
     http://www.quantum-espresso.org/quote

     Parallel version (MPI), running on    24 processors

     MPI processes distributed on     1 nodes
     R & G space division:  proc/nbgrp/npool/nimage =      24
     71126 MiB available memory on the printing compute node when the environment starts


  reading grid info from file dyn0    

  reading force constants from file dyn1
 macroscopic fields = T
   3.13210   0.00000   0.00000
   0.00000   3.19148   0.00000
   0.00000   0.00000   3.32580
  na=            1
   2.49686  -0.04541   0.00000
   0.28694   2.51593   0.00000
  -0.00000   0.00000   2.95553
  na=            2
   2.49686   0.04541   0.00000
  -0.28694   2.51593   0.00000
   0.00000   0.00000   2.95553
  na=            3
  -0.14756   0.03219   0.00002
   0.17487  -0.04248  -0.00003
  -0.00001  -0.00000  -0.20150
  na=            4
  -0.14756   0.03219  -0.00002
   0.17487  -0.04248   0.00003
   0.00001   0.00000  -0.20150
  na=            5
  -0.14756  -0.03219  -0.00002
  -0.17487  -0.04248  -0.00003
   0.00001  -0.00000  -0.20150
  na=            6
  -0.14756  -0.03219   0.00002
  -0.17487  -0.04248   0.00003
  -0.00001   0.00000  -0.20150
  na=            7
  -0.42840   0.13647   0.00003
   0.14342  -0.25066  -0.00003
   0.00003  -0.00003  -0.24749
  na=            8
  -0.42840   0.13647  -0.00003
   0.14342  -0.25066   0.00003
  -0.00003   0.00003  -0.24749
  na=            9
  -0.42840  -0.13647  -0.00003
  -0.14342  -0.25066  -0.00003
  -0.00003  -0.00003  -0.24749
  na=           10
  -0.42840  -0.13647   0.00003
  -0.14342  -0.25066   0.00003
   0.00003   0.00003  -0.24749
  na=           11
  -0.26855  -0.04201  -0.00000
  -0.11273  -0.42941   0.00001
   0.00001   0.00001  -0.24339
  na=           12
  -0.26855  -0.04201   0.00000
  -0.11273  -0.42941  -0.00001
  -0.00001  -0.00001  -0.24339
  na=           13
  -0.26855   0.04201   0.00000
   0.11273  -0.42941   0.00001
  -0.00001   0.00001  -0.24339
  na=           14
  -0.26855   0.04201  -0.00000
   0.11273  -0.42941  -0.00001
   0.00001  -0.00001  -0.24339
  na=           15
  -0.20208   0.14608   0.05997
   0.09754  -0.26713  -0.09409
   0.02060  -0.11180  -0.39250
  na=           16
  -0.20208   0.14608  -0.05997
   0.09754  -0.26713   0.09409
  -0.02060   0.11180  -0.39250
  na=           17
  -0.20208  -0.14608  -0.05997
  -0.09754  -0.26713  -0.09409
  -0.02060  -0.11180  -0.39250
  na=           18
  -0.20208  -0.14608   0.05997
  -0.09754  -0.26713   0.09409
   0.02060   0.11180  -0.39250
  na=           19
  -0.20214   0.14613   0.06004
   0.09759  -0.26716  -0.09410
   0.02064  -0.11180  -0.39248
  na=           20
  -0.20214   0.14613  -0.06004
   0.09759  -0.26716   0.09410
  -0.02064   0.11180  -0.39248
  na=           21
  -0.20214  -0.14613  -0.06004
  -0.09759  -0.26716  -0.09410
  -0.02064  -0.11180  -0.39248
  na=           22
  -0.20214  -0.14613   0.06004
  -0.09759  -0.26716   0.09410
   0.02064   0.11180  -0.39248
  Norm of the difference between old and new effective charges:    0.00105555873657616774
  nqs=            1
 q=   0.00000000  0.00000000  0.00000000
  reading force constants from file dyn2
  nqs=            2
 q=   0.00000000  0.00000000  0.48031633
 q=   0.00000000  0.00000000 -0.48031633
  reading force constants from file dyn3
  nqs=            2
 q=   0.00000000  0.32459228  0.00000000
 q=   0.00000000 -0.32459228  0.00000000
  reading force constants from file dyn4
  nqs=            4
 q=   0.00000000  0.32459228  0.48031633
 q=   0.00000000  0.32459228 -0.48031633
 q=   0.00000000 -0.32459228 -0.48031633
 q=   0.00000000 -0.32459228  0.48031633
  reading force constants from file dyn5
  nqs=            2
 q=   0.33333333  0.00000000  0.00000000
 q=  -0.33333333  0.00000000  0.00000000
  reading force constants from file dyn6
  nqs=            4
 q=   0.33333333  0.00000000  0.48031633
 q=   0.33333333  0.00000000 -0.48031633
 q=  -0.33333333  0.00000000 -0.48031633
 q=  -0.33333333  0.00000000  0.48031633
  reading force constants from file dyn7
  nqs=            4
 q=   0.33333333  0.32459228  0.00000000
 q=   0.33333333 -0.32459228  0.00000000
 q=  -0.33333333  0.32459228  0.00000000
 q=  -0.33333333 -0.32459228  0.00000000
  reading force constants from file dyn8
  nqs=            8
 q=   0.33333333  0.32459228  0.48031633
 q=  -0.33333333 -0.32459228 -0.48031633
 q=   0.33333333 -0.32459228 -0.48031633
 q=  -0.33333333  0.32459228  0.48031633
 q=  -0.33333333  0.32459228 -0.48031633
 q=   0.33333333 -0.32459228  0.48031633
 q=  -0.33333333 -0.32459228  0.48031633
 q=   0.33333333  0.32459228 -0.48031633

      q-space grid ok, #points =   27

      fft-check success (sum of imaginary terms < 10^-12)

     Q2R          :      3.00s CPU      3.06s WALL


   This run was terminated on:   2:36: 5  24Jul2024            

=------------------------------------------------------------------------------=
   JOB DONE.
=------------------------------------------------------------------------------=
