
     Program PWSCF v.7.3.1 starts on 12Aug2024 at 11:12:53 

     This program is part of the open-source Quantum ESPRESSO suite
     for quantum simulation of materials; please cite
         "P. Giannozzi et al., J. Phys.:Condens. Matter 21 395502 (2009);
         "P. Giannozzi et al., J. Phys.:Condens. Matter 29 465901 (2017);
         "P. Giannozzi et al., J. Chem. Phys. 152 154105 (2020);
          URL http://www.quantum-espresso.org", 
     in publications or presentations arising from this work. More details at
     http://www.quantum-espresso.org/quote

     Parallel version (MPI), running on    24 processors

     MPI processes distributed on     1 nodes
     93617 MiB available memory on the printing compute node when the environment starts

     Waiting for input...
     Reading input from standard input

     Current dimensions of program PWSCF are:
     Max number of different atomic species (ntypx) = 10
     Max number of k-points (npk) =  40000
     Max angular momentum in pseudopotentials (lmaxx) =  4

     R & G space division:  proc/nbgrp/npool/nimage =      24
     Subspace diagonalization in iterative solution of the eigenvalue problem:
     a serial algorithm will be used


     Parallelization info
     --------------------
     sticks:   dense  smooth     PW     G-vecs:    dense   smooth      PW
     Min         469     234     63                24647     8708    1225
     Max         470     236     65                24650     8711    1226
     Sum       11271    5637   1529               591573   209027   29405

     Using Slab Decomposition


     Title: 
     pre-ph                                                                     


     bravais-lattice index     =            8
     lattice parameter (alat)  =      13.3294  a.u.
     unit-cell volume          =    1548.2628 (a.u.)^3
     number of atoms/cell      =           22
     number of atomic types    =            3
     number of electrons       =        48.00
     number of Kohn-Sham states=           24
     kinetic-energy cutoff     =     100.0000  Ry
     charge density cutoff     =     800.0000  Ry
     scf convergence threshold =      1.0E-10
     mixing beta               =       0.7000
     number of iterations used =            8  plain     mixing
     Exchange-correlation= PBESOL
                           (   1   4  10   8   0   0   0)

     celldm(1)=  13.329372  celldm(2)=   0.998555  celldm(3)=   0.654702
     celldm(4)=   0.000000  celldm(5)=   0.000000  celldm(6)=   0.000000

     crystal axes: (cart. coord. in units of alat)
               a(1) = (   1.000000   0.000000   0.000000 )  
               a(2) = (   0.000000   0.998555   0.000000 )  
               a(3) = (   0.000000   0.000000   0.654702 )  

     reciprocal axes: (cart. coord. in units 2 pi/alat)
               b(1) = (  1.000000  0.000000  0.000000 )  
               b(2) = (  0.000000  1.001447  0.000000 )  
               b(3) = (  0.000000  0.000000  1.527413 )  


     PseudoPot. # 1 for B  read from file:
     /home/mehlhorn/pseudos/b_pbesol_v1.4.uspp.F.UPF
     MD5 check sum: 369b69bef2c3aeed4453bd8b804fd6a8
     Pseudo is Ultrasoft + core correction, Zval =  3.0
     Generated by new atomic code, or converted to UPF format
     Using radial grid of  781 points,  4 beta functions with: 
                l(1) =   0
                l(2) =   0
                l(3) =   1
                l(4) =   1
     Q(r) pseudized with  8 coefficients,  rinner =    1.100   1.100   1.100


     PseudoPot. # 2 for Ba read from file:
     /home/mehlhorn/pseudos/Ba.nc.z_10.oncvpsp4.dojo.v4-sp.upf
     MD5 check sum: c10ed334bb677c0554edec7181ce9143
     Pseudo is Norm-conserving + core correction, Zval = 10.0
     Generated using ONCVPSP code by D. R. Hamann
     Using radial grid of 1938 points,  8 beta functions with: 
                l(1) =   0
                l(2) =   0
                l(3) =   1
                l(4) =   1
                l(5) =   2
                l(6) =   2
                l(7) =   3
                l(8) =   3

     PseudoPot. # 3 for H  read from file:
     /home/mehlhorn/pseudos/H_ONCV_PBEsol-1.0.upf
     MD5 check sum: 398ef8f67c0a7342c05c87c5e19ea467
     Pseudo is Norm-conserving, Zval =  1.0
     Generated using ONCVPSP code by D. R. Hamann
     Using radial grid of 1180 points,  2 beta functions with: 
                l(1) =   0
                l(2) =   0

     atomic species   valence    mass     pseudopotential
     B                 3.00    10.81100     B ( 1.00)
     Ba               10.00   137.32700     Ba( 1.00)
     H                 1.00     1.00794     H ( 1.00)

      4 Sym. Ops. (no inversion) found ( 2 have fractional translation)



   Cartesian axes

     site n.     atom                  positions (alat units)
         1        Ba     tau(   1) = (   0.5000000   0.4992775   0.3273502  )
         2        Ba     tau(   2) = (   0.0000000   0.0000000   0.6547028  )
         3        B      tau(   3) = (   0.6273964   0.2536205   0.0000055  )
         4        B      tau(   4) = (   0.3726036   0.7449345   0.0000055  )
         5        B      tau(   5) = (   0.1273964   0.2456570   0.3273455  )
         6        B      tau(   6) = (   0.8726036   0.7528980   0.3273455  )
         7        H      tau(   7) = (   0.4554096   0.2850000  -0.0000080  )
         8        H      tau(   8) = (   0.5445904   0.7135550  -0.0000080  )
         9        H      tau(   9) = (   0.9554096   0.2142775   0.3273589  )
        10        H      tau(  10) = (   0.0445904   0.7842775   0.3273589  )
        11        H      tau(  11) = (   0.7157590   0.4052331   0.0000060  )
        12        H      tau(  12) = (   0.2842410   0.5933219   0.0000060  )
        13        H      tau(  13) = (   0.2157590   0.0940444   0.3273450  )
        14        H      tau(  14) = (   0.7842410   0.9045106   0.3273450  )
        15        H      tau(  15) = (   0.6658169   0.1636329   0.5103326  )
        16        H      tau(  16) = (   0.3341831   0.8349221   0.5103326  )
        17        H      tau(  17) = (   0.1658169   0.3356446   0.4717203  )
        18        H      tau(  18) = (   0.8341831   0.6629104   0.4717203  )
        19        H      tau(  19) = (   0.3341889   0.8349214   0.1443837  )
        20        H      tau(  20) = (   0.6658111   0.1636336   0.1443837  )
        21        H      tau(  21) = (   0.8341889   0.6629111   0.1829672  )
        22        H      tau(  22) = (   0.1658111   0.3356439   0.1829672  )

     number of k points=    27
                       cart. coord. in units 2pi/alat
        k(    1) = (   0.0000000   0.0000000   0.0000000), wk =   0.0160000
        k(    2) = (   0.0000000   0.0000000   0.3054825), wk =   0.0320000
        k(    3) = (   0.0000000   0.0000000   0.6109650), wk =   0.0320000
        k(    4) = (   0.0000000   0.2002894   0.0000000), wk =   0.0320000
        k(    5) = (   0.0000000   0.2002894   0.3054825), wk =   0.0640000
        k(    6) = (   0.0000000   0.2002894   0.6109650), wk =   0.0640000
        k(    7) = (   0.0000000   0.4005788   0.0000000), wk =   0.0320000
        k(    8) = (   0.0000000   0.4005788   0.3054825), wk =   0.0640000
        k(    9) = (   0.0000000   0.4005788   0.6109650), wk =   0.0640000
        k(   10) = (   0.2000000   0.0000000   0.0000000), wk =   0.0320000
        k(   11) = (   0.2000000   0.0000000   0.3054825), wk =   0.0640000
        k(   12) = (   0.2000000   0.0000000   0.6109650), wk =   0.0640000
        k(   13) = (   0.2000000   0.2002894   0.0000000), wk =   0.0640000
        k(   14) = (   0.2000000   0.2002894   0.3054825), wk =   0.1280000
        k(   15) = (   0.2000000   0.2002894   0.6109650), wk =   0.1280000
        k(   16) = (   0.2000000   0.4005788   0.0000000), wk =   0.0640000
        k(   17) = (   0.2000000   0.4005788   0.3054825), wk =   0.1280000
        k(   18) = (   0.2000000   0.4005788   0.6109650), wk =   0.1280000
        k(   19) = (   0.4000000   0.0000000   0.0000000), wk =   0.0320000
        k(   20) = (   0.4000000   0.0000000   0.3054825), wk =   0.0640000
        k(   21) = (   0.4000000   0.0000000   0.6109650), wk =   0.0640000
        k(   22) = (   0.4000000   0.2002894   0.0000000), wk =   0.0640000
        k(   23) = (   0.4000000   0.2002894   0.3054825), wk =   0.1280000
        k(   24) = (   0.4000000   0.2002894   0.6109650), wk =   0.1280000
        k(   25) = (   0.4000000   0.4005788   0.0000000), wk =   0.0640000
        k(   26) = (   0.4000000   0.4005788   0.3054825), wk =   0.1280000
        k(   27) = (   0.4000000   0.4005788   0.6109650), wk =   0.1280000

     Dense  grid:   591573 G-vectors     FFT dimensions: ( 128, 120,  80)

     Smooth grid:   209027 G-vectors     FFT dimensions: (  90,  90,  60)

     Estimated max dynamical RAM per process >      70.68 MB

     Estimated total dynamical RAM >       1.66 GB

     Initial potential from superposition of free atoms

     starting charge      47.9682, renormalised to      48.0000
     Starting wfcs are   42 randomized atomic wfcs

     total cpu time spent up to now is       13.1 secs

     Self-consistent Calculation

     iteration #  1     ecut=   100.00 Ry     beta= 0.70
     Davidson diagonalization with overlap
     ethr =  1.00E-02,  avg # of iterations =  2.0

     total cpu time spent up to now is       30.7 secs

     total energy              =    -155.91229993 Ry
     estimated scf accuracy    <       2.14900161 Ry

     iteration #  2     ecut=   100.00 Ry     beta= 0.70
     Davidson diagonalization with overlap
     ethr =  4.48E-03,  avg # of iterations =  2.0

     total cpu time spent up to now is       47.5 secs

     total energy              =    -156.40348741 Ry
     estimated scf accuracy    <       0.37862728 Ry

     iteration #  3     ecut=   100.00 Ry     beta= 0.70
     Davidson diagonalization with overlap
     ethr =  7.89E-04,  avg # of iterations =  2.0

     total cpu time spent up to now is       64.4 secs

     total energy              =    -156.46719290 Ry
     estimated scf accuracy    <       0.00491504 Ry

     iteration #  4     ecut=   100.00 Ry     beta= 0.70
     Davidson diagonalization with overlap
     ethr =  1.02E-05,  avg # of iterations =  5.1

     total cpu time spent up to now is       89.0 secs

     total energy              =    -156.47022316 Ry
     estimated scf accuracy    <       0.00179920 Ry

     iteration #  5     ecut=   100.00 Ry     beta= 0.70
     Davidson diagonalization with overlap
     ethr =  3.75E-06,  avg # of iterations =  3.4

     total cpu time spent up to now is      106.4 secs

     total energy              =    -156.47084315 Ry
     estimated scf accuracy    <       0.00018739 Ry

     iteration #  6     ecut=   100.00 Ry     beta= 0.70
     Davidson diagonalization with overlap
     ethr =  3.90E-07,  avg # of iterations =  4.1

     total cpu time spent up to now is      126.2 secs

     total energy              =    -156.47091691 Ry
     estimated scf accuracy    <       0.00000124 Ry

     iteration #  7     ecut=   100.00 Ry     beta= 0.70
     Davidson diagonalization with overlap
     ethr =  2.58E-09,  avg # of iterations = 10.7

     total cpu time spent up to now is      171.3 secs

     total energy              =    -156.47092791 Ry
     estimated scf accuracy    <       0.00000086 Ry

     iteration #  8     ecut=   100.00 Ry     beta= 0.70
     Davidson diagonalization with overlap
     ethr =  1.79E-09,  avg # of iterations =  2.0

     total cpu time spent up to now is      187.9 secs

     total energy              =    -156.47092799 Ry
     estimated scf accuracy    <       0.00000006 Ry

     iteration #  9     ecut=   100.00 Ry     beta= 0.70
     Davidson diagonalization with overlap
     ethr =  1.34E-10,  avg # of iterations =  5.4

     total cpu time spent up to now is      210.6 secs

     total energy              =    -156.47092803 Ry
     estimated scf accuracy    <       0.00000002 Ry

     iteration # 10     ecut=   100.00 Ry     beta= 0.70
     Davidson diagonalization with overlap
     ethr =  3.42E-11,  avg # of iterations =  3.0

     total cpu time spent up to now is      228.6 secs

     total energy              =    -156.47092803 Ry
     estimated scf accuracy    <          2.0E-10 Ry

     iteration # 11     ecut=   100.00 Ry     beta= 0.70
     Davidson diagonalization with overlap
     ethr =  4.21E-13,  avg # of iterations =  7.3

     total cpu time spent up to now is      261.6 secs

     End of self-consistent calculation

          k = 0.0000 0.0000 0.0000 ( 26119 PWs)   bands (ev):

   -24.4974 -24.4914  -9.9883  -9.9375  -9.7519  -9.7185  -9.6644  -9.6159
    -6.3979  -5.5522  -4.9998  -4.9223  -2.1154  -1.1774  -1.1395  -0.8197
    -0.7239  -0.5719  -0.4932  -0.3592  -0.0997   0.1566   0.1938   0.2103

          k = 0.0000 0.0000 0.3055 ( 26180 PWs)   bands (ev):

   -24.4921 -24.4873  -9.9284  -9.8881  -9.8460  -9.8202  -9.7381  -9.7131
    -6.0592  -5.3474  -5.1196  -5.0593  -1.8280  -1.5020  -1.1918  -1.0071
    -0.7310  -0.6613  -0.4034  -0.2669  -0.0752   0.0445   0.0617   0.1663

          k = 0.0000 0.0000 0.6110 ( 26130 PWs)   bands (ev):

   -24.4831 -24.4812 -10.1042 -10.0994  -9.8066  -9.7883  -9.7336  -9.7220
    -5.4366  -5.3151  -5.2942  -5.1356  -1.6894  -1.5584  -1.5421  -1.2651
    -0.6786  -0.6475  -0.3517  -0.2341  -0.1026  -0.0476   0.0273   0.0809

          k = 0.0000 0.2003 0.0000 ( 26152 PWs)   bands (ev):

   -24.4968 -24.4920  -9.9726  -9.9216  -9.7761  -9.7382  -9.6597  -9.6205
    -6.2929  -5.5357  -5.1270  -4.9748  -1.9375  -1.3211  -1.2019  -0.6350
    -0.5842  -0.5422  -0.5368  -0.3012  -0.1067  -0.0249   0.1376   0.1586

          k = 0.0000 0.2003 0.3055 ( 26154 PWs)   bands (ev):

   -24.4917 -24.4877  -9.9263  -9.8745  -9.8400  -9.8337  -9.7385  -9.7260
    -5.9805  -5.3229  -5.2265  -5.0905  -1.7081  -1.5259  -1.3125  -0.8086
    -0.6773  -0.6226  -0.5562  -0.2037  -0.0806   0.0372   0.0500   0.0629

          k = 0.0000 0.2003 0.6110 ( 26154 PWs)   bands (ev):

   -24.4829 -24.4814 -10.1107 -10.1063  -9.7925  -9.7802  -9.7340  -9.7267
    -5.5435  -5.4468  -5.1594  -5.0265  -1.7369  -1.6880  -1.4213  -1.1988
    -0.6300  -0.5068  -0.3650  -0.2327  -0.1279  -0.1233   0.0122   0.0255

          k = 0.0000 0.4006 0.0000 ( 26150 PWs)   bands (ev):

   -24.4953 -24.4934  -9.9300  -9.8950  -9.8167  -9.7862  -9.6475  -9.6325
    -6.0133  -5.6696  -5.2262  -5.1050  -1.6418  -1.4920  -1.0604  -0.5995
    -0.5859  -0.5630  -0.3280  -0.2712  -0.2108  -0.1405   0.0044   0.0601

          k = 0.0000 0.4006 0.3055 ( 26144 PWs)   bands (ev):

   -24.4905 -24.4890  -9.9116  -9.8792  -9.8410  -9.8184  -9.7500  -9.7473
    -5.7670  -5.4826  -5.2563  -5.1679  -1.5649  -1.5577  -1.2290  -0.8804
    -0.6100  -0.5594  -0.4499  -0.2288  -0.1529  -0.1441   0.0523   0.0568

          k = 0.0000 0.4006 0.6110 ( 26160 PWs)   bands (ev):

   -24.4824 -24.4818 -10.1196 -10.1177  -9.7659  -9.7634  -9.7393  -9.7386
    -5.6186  -5.5833  -5.0103  -4.9560  -1.8067  -1.8006  -1.2273  -1.1156
    -0.5237  -0.4225  -0.3403  -0.3071  -0.1961  -0.1343  -0.0939   0.0057

          k = 0.2000 0.0000 0.0000 ( 26143 PWs)   bands (ev):

   -24.4968 -24.4920  -9.9688  -9.9245  -9.7729  -9.7436  -9.6598  -9.6205
    -6.2989  -5.5819  -5.0221  -5.0030  -1.9865  -1.1137  -1.0688  -1.0050
    -0.5414  -0.5137  -0.4891  -0.3652  -0.1446  -0.0616   0.1401   0.1667

          k = 0.2000 0.0000 0.3055 ( 26134 PWs)   bands (ev):

   -24.4917 -24.4877  -9.9130  -9.8966  -9.8364  -9.8285  -9.7495  -9.7171
    -5.9763  -5.3577  -5.1368  -5.1338  -1.7415  -1.4844  -1.2776  -0.8819
    -0.7177  -0.6188  -0.4755  -0.2260  -0.2093   0.0316   0.0900   0.1245

          k = 0.2000 0.0000 0.6110 ( 26147 PWs)   bands (ev):

   -24.4829 -24.4814 -10.1120 -10.1077  -9.7972  -9.7756  -9.7385  -9.7227
    -5.4718  -5.3658  -5.2432  -5.0848  -1.8906  -1.7526  -1.3436  -1.0945
    -0.6152  -0.5120  -0.3474  -0.2826  -0.1132  -0.0626  -0.0283   0.0755

          k = 0.2000 0.2003 0.0000 ( 26120 PWs)   bands (ev):

   -24.4963 -24.4924  -9.9781  -9.8973  -9.8131  -9.7277  -9.6559  -9.6241
    -6.2166  -5.5842  -5.1483  -4.9989  -1.8403  -1.3080  -1.1230  -0.7602
    -0.5916  -0.5284  -0.3633  -0.2945  -0.2053  -0.1235   0.0578   0.1465

          k = 0.2000 0.2003 0.3055 ( 26149 PWs)   bands (ev):

   -24.4913 -24.4881  -9.9218  -9.8795  -9.8572  -9.8161  -9.7510  -9.7187
    -5.9107  -5.3433  -5.2553  -5.1197  -1.6548  -1.5029  -1.3410  -0.7847
    -0.7210  -0.5999  -0.4687  -0.2394  -0.1787  -0.0066   0.0510   0.1095

          k = 0.2000 0.2003 0.6110 ( 26142 PWs)   bands (ev):

   -24.4827 -24.4815 -10.1179 -10.1035  -9.8031  -9.7610  -9.7422  -9.7254
    -5.5541  -5.3747  -5.2205  -5.0121  -1.8934  -1.7493  -1.3301  -1.1383
    -0.5640  -0.4524  -0.3494  -0.2356  -0.1891  -0.0787  -0.0382   0.0811

          k = 0.2000 0.4006 0.0000 ( 26127 PWs)   bands (ev):

   -24.4951 -24.4936  -9.9646  -9.9198  -9.7959  -9.7462  -9.6460  -9.6338
    -5.9953  -5.7218  -5.1991  -5.0950  -1.5872  -1.4579  -1.0453  -0.6338
    -0.6274  -0.6000  -0.4217  -0.1857  -0.1809  -0.1217  -0.0476   0.0521

          k = 0.2000 0.4006 0.3055 ( 26132 PWs)   bands (ev):

   -24.4903 -24.4891  -9.9194  -9.8954  -9.8452  -9.8158  -9.7458  -9.7279
    -5.7330  -5.4976  -5.2579  -5.1786  -1.5677  -1.5330  -1.2485  -0.9601
    -0.5919  -0.5063  -0.4413  -0.2512  -0.1488  -0.0787   0.0173   0.0524

          k = 0.2000 0.4006 0.6110 ( 26167 PWs)   bands (ev):

   -24.4824 -24.4819 -10.1169 -10.1083  -9.7924  -9.7682  -9.7371  -9.7291
    -5.5858  -5.5163  -5.0669  -4.9853  -1.8702  -1.7962  -1.2668  -1.1784
    -0.5412  -0.4412  -0.2994  -0.1943  -0.1724  -0.0960  -0.0664   0.0344

          k = 0.4000 0.0000 0.0000 ( 26166 PWs)   bands (ev):

   -24.4953 -24.4934  -9.9198  -9.8949  -9.8177  -9.7991  -9.6476  -9.6326
    -6.0427  -5.7472  -5.0924  -5.0720  -1.6946  -1.3750  -0.8947  -0.6649
    -0.5464  -0.4849  -0.4785  -0.3501  -0.3169  -0.2526  -0.0461   0.0488

          k = 0.4000 0.0000 0.3055 ( 26144 PWs)   bands (ev):

   -24.4904 -24.4889  -9.8948  -9.8790  -9.8631  -9.8281  -9.7549  -9.7330
    -5.7581  -5.4941  -5.2052  -5.1769  -1.5956  -1.4462  -1.2863  -0.9229
    -0.6433  -0.5139  -0.5092  -0.3981  -0.1507  -0.0463   0.0634   0.0738

          k = 0.4000 0.0000 0.6110 ( 26164 PWs)   bands (ev):

   -24.4824 -24.4818 -10.1230 -10.1212  -9.7764  -9.7581  -9.7450  -9.7291
    -5.4907  -5.4536  -5.1310  -5.0645  -2.0272  -1.9688  -1.1034  -0.9605
    -0.5217  -0.4208  -0.3769  -0.2667  -0.2000  -0.0477  -0.0100   0.0103

          k = 0.4000 0.2003 0.0000 ( 26129 PWs)   bands (ev):

   -24.4951 -24.4936  -9.9623  -9.9173  -9.7996  -9.7494  -9.6460  -9.6339
    -6.0147  -5.7644  -5.1321  -5.0630  -1.6184  -1.3970  -0.9229  -0.6830
    -0.5813  -0.5481  -0.5246  -0.3188  -0.2476  -0.1759  -0.0525   0.0736

          k = 0.4000 0.2003 0.3055 ( 26128 PWs)   bands (ev):

   -24.4903 -24.4891  -9.9143  -9.8932  -9.8549  -9.8220  -9.7444  -9.7242
    -5.7280  -5.5032  -5.2338  -5.1777  -1.5750  -1.4610  -1.3085  -0.9954
    -0.5853  -0.5025  -0.4403  -0.3340  -0.1608  -0.0641   0.0314   0.0698

          k = 0.4000 0.2003 0.6110 ( 26176 PWs)   bands (ev):

   -24.4824 -24.4819 -10.1191 -10.1106  -9.7942  -9.7699  -9.7362  -9.7272
    -5.5090  -5.4069  -5.1680  -5.0527  -1.9934  -1.9331  -1.1569  -1.0914
    -0.5104  -0.4158  -0.3618  -0.2761  -0.1312  -0.0643   0.0046   0.0854

          k = 0.4000 0.4006 0.0000 ( 26138 PWs)   bands (ev):

   -24.4946 -24.4941  -9.9878  -9.9701  -9.7438  -9.7224  -9.6421  -9.6374
    -5.9353  -5.8331  -5.1401  -5.0974  -1.4748  -1.4144  -0.9852  -0.8143
    -0.6517  -0.6376  -0.4164  -0.2466  -0.1347  -0.1076  -0.0471   0.0267

          k = 0.4000 0.4006 0.3055 ( 26113 PWs)   bands (ev):

   -24.4899 -24.4895  -9.9294  -9.9209  -9.8381  -9.8247  -9.7243  -9.7157
    -5.6490  -5.5564  -5.2425  -5.2081  -1.5392  -1.4928  -1.2879  -1.1526
    -0.4642  -0.4446  -0.3565  -0.2515  -0.1624  -0.0902  -0.0345   0.0312

          k = 0.4000 0.4006 0.6110 ( 26172 PWs)   bands (ev):

   -24.4822 -24.4820 -10.1053 -10.0995  -9.8086  -9.7962  -9.7283  -9.7263
    -5.4818  -5.4185  -5.1496  -5.0815  -1.9037  -1.8631  -1.3169  -1.2853
    -0.4729  -0.4120  -0.2372  -0.2241  -0.1072  -0.1013   0.0587   0.0966

     highest occupied level (ev):     0.2103

!    total energy              =    -156.47092803 Ry
     estimated scf accuracy    <          7.7E-11 Ry

     The total energy is the sum of the following terms:
     one-electron contribution =     -31.44766639 Ry
     hartree contribution      =      29.10517500 Ry
     xc contribution           =     -49.06076870 Ry
     ewald contribution        =    -105.06766794 Ry

     convergence has been achieved in  11 iterations

     Writing all to output data dir ./pwscf.save/ :
     XML data file, charge density, pseudopotentials, collected wavefunctions

     init_run     :     10.83s CPU     12.47s WALL (       1 calls)
     electrons    :    246.70s CPU    248.62s WALL (       1 calls)

     Called by init_run:
     wfcinit      :      8.22s CPU      8.29s WALL (       1 calls)
     potinit      :      0.60s CPU      1.06s WALL (       1 calls)
     hinit0       :      1.10s CPU      2.14s WALL (       1 calls)

     Called by electrons:
     c_bands      :    220.96s CPU    222.41s WALL (      11 calls)
     sum_band     :     21.80s CPU     22.06s WALL (      11 calls)
     v_of_rho     :      1.61s CPU      1.70s WALL (      12 calls)
     newd         :      2.23s CPU      2.27s WALL (      12 calls)
     mix_rho      :      0.21s CPU      0.24s WALL (      11 calls)

     Called by c_bands:
     init_us_2    :      4.13s CPU      4.19s WALL (     621 calls)
     cegterg      :    200.98s CPU    202.35s WALL (     297 calls)

     Called by *egterg:
     cdiaghg      :      3.01s CPU      3.04s WALL (    1565 calls)
     h_psi        :    146.37s CPU    147.49s WALL (    1592 calls)
     s_psi        :     26.97s CPU     27.10s WALL (    1592 calls)
     g_psi        :      0.50s CPU      0.51s WALL (    1268 calls)

     Called by h_psi:
     h_psi:calbec :     23.89s CPU     24.01s WALL (    1592 calls)
     vloc_psi     :     94.78s CPU     95.69s WALL (    1592 calls)
     add_vuspsi   :     27.26s CPU     27.36s WALL (    1592 calls)

     General routines
     calbec       :     29.88s CPU     30.03s WALL (    1889 calls)
     fft          :      1.79s CPU      2.86s WALL (     154 calls)
     ffts         :      0.49s CPU      0.94s WALL (      23 calls)
     fftw         :     88.45s CPU     89.23s WALL (   62616 calls)
     interpolate  :      0.55s CPU      1.01s WALL (      12 calls)

     Parallel routines

     PWSCF        :   4m18.45s CPU   4m22.99s WALL


   This run was terminated on:  11:17:16  12Aug2024            

=------------------------------------------------------------------------------=
   JOB DONE.
=------------------------------------------------------------------------------=
