
     Program PWSCF v.7.3.1 starts on  6Aug2024 at 14:42:28 

     This program is part of the open-source Quantum ESPRESSO suite
     for quantum simulation of materials; please cite
         "P. Giannozzi et al., J. Phys.:Condens. Matter 21 395502 (2009);
         "P. Giannozzi et al., J. Phys.:Condens. Matter 29 465901 (2017);
         "P. Giannozzi et al., J. Chem. Phys. 152 154105 (2020);
          URL http://www.quantum-espresso.org", 
     in publications or presentations arising from this work. More details at
     http://www.quantum-espresso.org/quote

     Parallel version (MPI), running on    24 processors

     MPI processes distributed on     1 nodes
     93615 MiB available memory on the printing compute node when the environment starts

     Waiting for input...
     Reading input from standard input

     Current dimensions of program PWSCF are:
     Max number of different atomic species (ntypx) = 10
     Max number of k-points (npk) =  40000
     Max angular momentum in pseudopotentials (lmaxx) =  4

     R & G space division:  proc/nbgrp/npool/nimage =      24
     Subspace diagonalization in iterative solution of the eigenvalue problem:
     a serial algorithm will be used


     Parallelization info
     --------------------
     sticks:   dense  smooth     PW     G-vecs:    dense   smooth      PW
     Min         460     230     63                24878     8799    1265
     Max         461     232     64                24880     8800    1267
     Sum       11041    5527   1523               597093   211195   30381

     Using Slab Decomposition


     Title: 
     volume variation                                                           


     bravais-lattice index     =            8
     lattice parameter (alat)  =      13.0068  a.u.
     unit-cell volume          =    1562.5325 (a.u.)^3
     number of atoms/cell      =           22
     number of atomic types    =            3
     number of electrons       =        48.00
     number of Kohn-Sham states=           24
     kinetic-energy cutoff     =     100.0000  Ry
     charge density cutoff     =     800.0000  Ry
     scf convergence threshold =      1.0E-10
     mixing beta               =       0.7000
     number of iterations used =            8  plain     mixing
     energy convergence thresh.=      1.0E-05
     force convergence thresh. =      1.0E-05
     press convergence thresh. =      5.0E-01
     Exchange-correlation= PBESOL
                           (   1   4  10   8   0   0   0)
     nstep                     =          300


     celldm(1)=  13.006786  celldm(2)=   1.025571  celldm(3)=   0.692394
     celldm(4)=   0.000000  celldm(5)=   0.000000  celldm(6)=   0.000000

     crystal axes: (cart. coord. in units of alat)
               a(1) = (   1.000000   0.000000   0.000000 )  
               a(2) = (   0.000000   1.025571   0.000000 )  
               a(3) = (   0.000000   0.000000   0.692394 )  

     reciprocal axes: (cart. coord. in units 2 pi/alat)
               b(1) = (  1.000000  0.000000  0.000000 )  
               b(2) = (  0.000000  0.975067  0.000000 )  
               b(3) = (  0.000000  0.000000  1.444264 )  


     PseudoPot. # 1 for B  read from file:
     /home/mehlhorn/pseudos/b_pbesol_v1.4.uspp.F.UPF
     MD5 check sum: 369b69bef2c3aeed4453bd8b804fd6a8
     Pseudo is Ultrasoft + core correction, Zval =  3.0
     Generated by new atomic code, or converted to UPF format
     Using radial grid of  781 points,  4 beta functions with: 
                l(1) =   0
                l(2) =   0
                l(3) =   1
                l(4) =   1
     Q(r) pseudized with  8 coefficients,  rinner =    1.100   1.100   1.100


     PseudoPot. # 2 for Ba read from file:
     /home/mehlhorn/pseudos/Ba.nc.z_10.oncvpsp4.dojo.v4-sp.upf
     MD5 check sum: c10ed334bb677c0554edec7181ce9143
     Pseudo is Norm-conserving + core correction, Zval = 10.0
     Generated using ONCVPSP code by D. R. Hamann
     Using radial grid of 1938 points,  8 beta functions with: 
                l(1) =   0
                l(2) =   0
                l(3) =   1
                l(4) =   1
                l(5) =   2
                l(6) =   2
                l(7) =   3
                l(8) =   3

     PseudoPot. # 3 for H  read from file:
     /home/mehlhorn/pseudos/H_ONCV_PBEsol-1.0.upf
     MD5 check sum: 398ef8f67c0a7342c05c87c5e19ea467
     Pseudo is Norm-conserving, Zval =  1.0
     Generated using ONCVPSP code by D. R. Hamann
     Using radial grid of 1180 points,  2 beta functions with: 
                l(1) =   0
                l(2) =   0

     atomic species   valence    mass     pseudopotential
     B                 3.00    10.81100     B ( 1.00)
     Ba               10.00   137.32700     Ba( 1.00)
     H                 1.00     1.00794     H ( 1.00)

      4 Sym. Ops. (no inversion) found ( 2 have fractional translation)



   Cartesian axes

     site n.     atom                  positions (alat units)
         1        Ba     tau(   1) = (   0.5000000   0.5127855   0.3462657  )
         2        Ba     tau(   2) = (   0.0000000   0.0000000   0.6923255  )
         3        B      tau(   3) = (   0.6102570   0.2453190   0.0000455  )
         4        B      tau(   4) = (   0.3897430   0.7802519   0.0000455  )
         5        B      tau(   5) = (   0.1102570   0.2674665   0.3461516  )
         6        B      tau(   6) = (   0.8897430   0.7581045   0.3461516  )
         7        H      tau(   7) = (   0.4340973   0.2996264   0.0001599  )
         8        H      tau(   8) = (   0.5659027   0.7259445   0.0001599  )
         9        H      tau(   9) = (   0.9340973   0.2131590   0.3460372  )
        10        H      tau(  10) = (   0.0659027   0.8124119   0.3460372  )
        11        H      tau(  11) = (   0.7220603   0.3933629  -0.0000058  )
        12        H      tau(  12) = (   0.2779397   0.6322081  -0.0000058  )
        13        H      tau(  13) = (   0.2220603   0.1194226   0.3462029  )
        14        H      tau(  14) = (   0.7779397   0.9061483   0.3462029  )
        15        H      tau(  15) = (   0.6392499   0.1457279   0.5404125  )
        16        H      tau(  16) = (   0.3607501   0.8798430   0.5404125  )
        17        H      tau(  17) = (   0.1392499   0.3670576   0.4981787  )
        18        H      tau(  18) = (   0.8607501   0.6585133   0.4981787  )
        19        H      tau(  19) = (   0.3605328   0.8798946   0.1519977  )
        20        H      tau(  20) = (   0.6394672   0.1456763   0.1519977  )
        21        H      tau(  21) = (   0.8605328   0.6584617   0.1941994  )
        22        H      tau(  22) = (   0.1394672   0.3671092   0.1941994  )

     number of k points=    27
                       cart. coord. in units 2pi/alat
        k(    1) = (   0.0000000   0.0000000   0.0000000), wk =   0.0312500
        k(    2) = (   0.0000000   0.0000000   0.3610660), wk =   0.0625000
        k(    3) = (   0.0000000   0.0000000  -0.7221320), wk =   0.0312500
        k(    4) = (   0.0000000   0.2437667   0.0000000), wk =   0.0625000
        k(    5) = (   0.0000000   0.2437667   0.3610660), wk =   0.1250000
        k(    6) = (   0.0000000   0.2437667  -0.7221320), wk =   0.0625000
        k(    7) = (   0.0000000  -0.4875333   0.0000000), wk =   0.0312500
        k(    8) = (   0.0000000  -0.4875333   0.3610660), wk =   0.0625000
        k(    9) = (   0.0000000  -0.4875333  -0.7221320), wk =   0.0312500
        k(   10) = (   0.2500000   0.0000000   0.0000000), wk =   0.0625000
        k(   11) = (   0.2500000   0.0000000   0.3610660), wk =   0.1250000
        k(   12) = (   0.2500000   0.0000000  -0.7221320), wk =   0.0625000
        k(   13) = (   0.2500000   0.2437667   0.0000000), wk =   0.1250000
        k(   14) = (   0.2500000   0.2437667   0.3610660), wk =   0.2500000
        k(   15) = (   0.2500000   0.2437667  -0.7221320), wk =   0.1250000
        k(   16) = (   0.2500000  -0.4875333   0.0000000), wk =   0.0625000
        k(   17) = (   0.2500000  -0.4875333   0.3610660), wk =   0.1250000
        k(   18) = (   0.2500000  -0.4875333  -0.7221320), wk =   0.0625000
        k(   19) = (  -0.5000000   0.0000000   0.0000000), wk =   0.0312500
        k(   20) = (  -0.5000000   0.0000000   0.3610660), wk =   0.0625000
        k(   21) = (  -0.5000000   0.0000000  -0.7221320), wk =   0.0312500
        k(   22) = (  -0.5000000   0.2437667   0.0000000), wk =   0.0625000
        k(   23) = (  -0.5000000   0.2437667   0.3610660), wk =   0.1250000
        k(   24) = (  -0.5000000   0.2437667  -0.7221320), wk =   0.0625000
        k(   25) = (  -0.5000000  -0.4875333   0.0000000), wk =   0.0312500
        k(   26) = (  -0.5000000  -0.4875333   0.3610660), wk =   0.0625000
        k(   27) = (  -0.5000000  -0.4875333  -0.7221320), wk =   0.0312500

     Dense  grid:   597093 G-vectors     FFT dimensions: ( 120, 128,  90)

     Smooth grid:   211195 G-vectors     FFT dimensions: (  90,  90,  60)

     Estimated max dynamical RAM per process >      96.21 MB

     Estimated total dynamical RAM >       2.25 GB

     Initial potential from superposition of free atoms

     starting charge      47.9682, renormalised to      48.0000
     Starting wfcs are   42 randomized atomic wfcs

     total cpu time spent up to now is       12.9 secs

     Self-consistent Calculation

     iteration #  1     ecut=   100.00 Ry     beta= 0.70
     Davidson diagonalization with overlap
     ethr =  1.00E-02,  avg # of iterations =  2.0

     total cpu time spent up to now is       30.3 secs

     total energy              =    -155.95652066 Ry
     estimated scf accuracy    <       1.89042650 Ry

     iteration #  2     ecut=   100.00 Ry     beta= 0.70
     Davidson diagonalization with overlap
     ethr =  3.94E-03,  avg # of iterations =  2.0

     total cpu time spent up to now is       47.3 secs

     total energy              =    -156.38759493 Ry
     estimated scf accuracy    <       0.36010718 Ry

     iteration #  3     ecut=   100.00 Ry     beta= 0.70
     Davidson diagonalization with overlap
     ethr =  7.50E-04,  avg # of iterations =  2.0

     total cpu time spent up to now is       64.4 secs

     total energy              =    -156.44810544 Ry
     estimated scf accuracy    <       0.00458223 Ry

     iteration #  4     ecut=   100.00 Ry     beta= 0.70
     Davidson diagonalization with overlap
     ethr =  9.55E-06,  avg # of iterations =  5.1

     total cpu time spent up to now is       89.1 secs

     total energy              =    -156.45082886 Ry
     estimated scf accuracy    <       0.00184963 Ry

     iteration #  5     ecut=   100.00 Ry     beta= 0.70
     Davidson diagonalization with overlap
     ethr =  3.85E-06,  avg # of iterations =  3.0

     total cpu time spent up to now is      106.7 secs

     total energy              =    -156.45145774 Ry
     estimated scf accuracy    <       0.00019120 Ry

     iteration #  6     ecut=   100.00 Ry     beta= 0.70
     Davidson diagonalization with overlap
     ethr =  3.98E-07,  avg # of iterations =  4.1

     total cpu time spent up to now is      126.1 secs

     total energy              =    -156.45152352 Ry
     estimated scf accuracy    <       0.00000166 Ry

     iteration #  7     ecut=   100.00 Ry     beta= 0.70
     Davidson diagonalization with overlap
     ethr =  3.47E-09,  avg # of iterations =  9.0

     total cpu time spent up to now is      165.3 secs

     total energy              =    -156.45153620 Ry
     estimated scf accuracy    <       0.00000140 Ry

     iteration #  8     ecut=   100.00 Ry     beta= 0.70
     Davidson diagonalization with overlap
     ethr =  2.92E-09,  avg # of iterations =  2.0

     total cpu time spent up to now is      182.3 secs

     total energy              =    -156.45153646 Ry
     estimated scf accuracy    <       0.00000002 Ry

     iteration #  9     ecut=   100.00 Ry     beta= 0.70
     Davidson diagonalization with overlap
     ethr =  4.41E-11,  avg # of iterations =  6.0

     total cpu time spent up to now is      208.4 secs

     total energy              =    -156.45153649 Ry
     estimated scf accuracy    <          3.5E-09 Ry

     iteration # 10     ecut=   100.00 Ry     beta= 0.70
     Davidson diagonalization with overlap
     ethr =  7.24E-12,  avg # of iterations =  3.1

     total cpu time spent up to now is      228.0 secs

     total energy              =    -156.45153649 Ry
     estimated scf accuracy    <          2.9E-10 Ry

     iteration # 11     ecut=   100.00 Ry     beta= 0.70
     Davidson diagonalization with overlap
     ethr =  6.01E-13,  avg # of iterations =  5.1

     total cpu time spent up to now is      251.0 secs

     End of self-consistent calculation

          k = 0.0000 0.0000 0.0000 ( 26431 PWs)   bands (ev):

   -24.6684 -24.6628 -10.0616 -10.0038  -9.8698  -9.8449  -9.8097  -9.7659
    -6.2238  -5.3366  -4.8503  -4.6782  -1.9879  -1.1456  -1.1013  -0.7218
    -0.4007  -0.3888  -0.3851  -0.2196  -0.0819   0.2938   0.3270   0.3656

          k = 0.0000 0.0000 0.3611 ( 26407 PWs)   bands (ev):

   -24.6633 -24.6594  -9.9949  -9.9868  -9.9661  -9.9569  -9.8584  -9.8450
    -5.8188  -5.1513  -4.9633  -4.8463  -1.6680  -1.4227  -0.9637  -0.8931
    -0.7842  -0.6880  -0.3498  -0.0888   0.1304   0.1308   0.1963   0.3447

          k = 0.0000 0.0000-0.7221 ( 26412 PWs)   bands (ev):

   -24.6570 -24.6570 -10.1448 -10.1447  -9.8935  -9.8935  -9.8697  -9.8697
    -5.1962  -5.1956  -5.0489  -5.0484  -1.4238  -1.4234  -1.4036  -1.4021
    -0.4054  -0.4045  -0.3750  -0.3735   0.1488   0.1490   0.1787   0.1793

          k = 0.0000 0.2438 0.0000 ( 26414 PWs)   bands (ev):

   -24.6675 -24.6636 -10.0402  -9.9831  -9.9030  -9.8682  -9.8031  -9.7722
    -6.0580  -5.2691  -5.0873  -4.7808  -1.6716  -1.3044  -1.1898  -0.4940
    -0.4785  -0.4425  -0.1866  -0.0881  -0.0012   0.0081   0.2173   0.2997

          k = 0.0000 0.2438 0.3611 ( 26382 PWs)   bands (ev):

   -24.6627 -24.6599 -10.0209  -9.9889  -9.9419  -9.9387  -9.8625  -9.8592
    -5.7189  -5.2106  -5.0113  -4.8879  -1.4892  -1.4466  -1.2167  -0.7147
    -0.6697  -0.4744  -0.4712  -0.0446   0.0549   0.0759   0.1821   0.2401

          k = 0.0000 0.2438-0.7221 ( 26386 PWs)   bands (ev):

   -24.6570 -24.6570 -10.1549 -10.1548  -9.8815  -9.8815  -9.8691  -9.8690
    -5.3716  -5.3715  -4.8688  -4.8687  -1.5128  -1.5121  -1.2660  -1.2654
    -0.3434  -0.3416  -0.3347  -0.3346   0.0072   0.0073   0.1725   0.1729

          k = 0.0000-0.4875 0.0000 ( 26398 PWs)   bands (ev):

   -24.6656 -24.6656  -9.9832  -9.9832  -9.9212  -9.9212  -9.7875  -9.7875
    -5.6317  -5.6317  -5.0125  -5.0125  -1.4119  -1.4119  -0.7657  -0.7657
    -0.5501  -0.5501  -0.0739  -0.0739   0.0259   0.0259   0.1651   0.1651

          k = 0.0000-0.4875 0.3611 ( 26390 PWs)   bands (ev):

   -24.6613 -24.6613 -10.0177 -10.0177  -9.9104  -9.9104  -9.8797  -9.8797
    -5.4660  -5.4660  -4.9718  -4.9718  -1.4266  -1.4266  -1.0166  -1.0166
    -0.4550  -0.4550  -0.1876  -0.1876  -0.0270  -0.0270   0.1661   0.1661

          k = 0.0000-0.4875-0.7221 ( 26408 PWs)   bands (ev):

   -24.6570 -24.6570 -10.1641 -10.1641  -9.8736  -9.8736  -9.8652  -9.8652
    -5.4661  -5.4661  -4.7698  -4.7698  -1.5899  -1.5899  -1.0698  -1.0698
    -0.3890  -0.3890  -0.2640  -0.2640  -0.1647  -0.1647   0.2075   0.2075

          k = 0.2500 0.0000 0.0000 ( 26409 PWs)   bands (ev):

   -24.6675 -24.6636 -10.0347  -9.9896  -9.8982  -9.8773  -9.8031  -9.7722
    -6.0648  -5.3961  -4.8697  -4.8020  -1.8137  -1.0435  -1.0067  -0.8483
    -0.3890  -0.3281  -0.2694  -0.2010  -0.1140  -0.0906   0.2703   0.3162

          k = 0.2500 0.0000 0.3611 ( 26378 PWs)   bands (ev):

   -24.6627 -24.6599 -10.0130  -9.9977  -9.9635  -9.9205  -9.8743  -9.8498
    -5.6892  -5.1616  -4.9821  -4.9550  -1.6365  -1.3903  -1.2430  -0.7674
    -0.7131  -0.5020  -0.2673  -0.1393  -0.0319   0.1042   0.2832   0.2968

          k = 0.2500 0.0000-0.7221 ( 26358 PWs)   bands (ev):

   -24.6570 -24.6570 -10.1576 -10.1576  -9.8854  -9.8854  -9.8666  -9.8666
    -5.1994  -5.1989  -5.0227  -5.0224  -1.8452  -1.8447  -1.0264  -1.0259
    -0.4095  -0.4092  -0.1486  -0.1470  -0.0138  -0.0136   0.2156   0.2159

          k = 0.2500 0.2438 0.0000 ( 26382 PWs)   bands (ev):

   -24.6669 -24.6642 -10.0531  -9.9721  -9.9319  -9.8490  -9.7984  -9.7765
    -5.9360  -5.3631  -5.0609  -4.8515  -1.5538  -1.2558  -1.0199  -0.5887
    -0.5215  -0.4815  -0.2010  -0.0792  -0.0442   0.0068   0.1024   0.2303

          k = 0.2500 0.2438 0.3611 ( 26387 PWs)   bands (ev):

   -24.6623 -24.6603 -10.0129  -9.9890  -9.9862  -9.9088  -9.8783  -9.8467
    -5.6044  -5.1714  -5.0836  -4.9609  -1.5933  -1.3497  -1.2784  -0.7610
    -0.5822  -0.4340  -0.3254  -0.1321  -0.0351   0.0726   0.2036   0.2794

          k = 0.2500 0.2438-0.7221 ( 26382 PWs)   bands (ev):

   -24.6570 -24.6570 -10.1629 -10.1467  -9.8978  -9.8744  -9.8705  -9.8675
    -5.3664  -5.2436  -4.9745  -4.8499  -1.8211  -1.7611  -1.0762  -1.0190
    -0.4481  -0.4440  -0.1713  -0.1329   0.0269   0.0397   0.1623   0.2087

          k = 0.2500-0.4875 0.0000 ( 26386 PWs)   bands (ev):

   -24.6656 -24.6656 -10.0344 -10.0344  -9.8717  -9.8717  -9.7873  -9.7873
    -5.6067  -5.6067  -5.0354  -5.0354  -1.3093  -1.3093  -0.7797  -0.7797
    -0.5791  -0.5791  -0.1357  -0.1357   0.0539   0.0539   0.1009   0.1009

          k = 0.2500-0.4875 0.3611 ( 26398 PWs)   bands (ev):

   -24.6613 -24.6613 -10.0113 -10.0113  -9.9460  -9.9460  -9.8552  -9.8552
    -5.3895  -5.3895  -5.0364  -5.0364  -1.4990  -1.4990  -0.9781  -0.9781
    -0.4503  -0.4503  -0.1559  -0.1559  -0.0297  -0.0297   0.1800   0.1800

          k = 0.2500-0.4875-0.7221 ( 26388 PWs)   bands (ev):

   -24.6570 -24.6570 -10.1527 -10.1527  -9.8865  -9.8865  -9.8710  -9.8710
    -5.3841  -5.3841  -4.8286  -4.8286  -1.7259  -1.7259  -1.1137  -1.1137
    -0.3489  -0.3489  -0.2334  -0.2334   0.0151   0.0151   0.1958   0.1958

          k =-0.5000 0.0000 0.0000 ( 26394 PWs)   bands (ev):

   -24.6656 -24.6656  -9.9714  -9.9714  -9.9382  -9.9382  -9.7875  -9.7875
    -5.6918  -5.6918  -4.8936  -4.8936  -1.4253  -1.4253  -0.6805  -0.6805
    -0.3481  -0.3481  -0.3076  -0.3076  -0.2147  -0.2147   0.1806   0.1806

          k =-0.5000 0.0000 0.3611 ( 26386 PWs)   bands (ev):

   -24.6613 -24.6613 -10.0189 -10.0189  -9.9246  -9.9246  -9.8712  -9.8712
    -5.3816  -5.3816  -5.0164  -5.0164  -1.5498  -1.5498  -1.0268  -1.0268
    -0.4551  -0.4551  -0.2786  -0.2786   0.0675   0.0675   0.2659   0.2659

          k =-0.5000 0.0000-0.7221 ( 26364 PWs)   bands (ev):

   -24.6570 -24.6570 -10.1696 -10.1696  -9.8799  -9.8799  -9.8618  -9.8618
    -5.2054  -5.2054  -4.9921  -4.9921  -2.0386  -2.0386  -0.7911  -0.7911
    -0.4240  -0.4240  -0.2530  -0.2530   0.1439   0.1439   0.1945   0.1945

          k =-0.5000 0.2438 0.0000 ( 26394 PWs)   bands (ev):

   -24.6655 -24.6655 -10.0336 -10.0336  -9.8752  -9.8752  -9.7873  -9.7873
    -5.6426  -5.6426  -4.9703  -4.9703  -1.3231  -1.3231  -0.6876  -0.6876
    -0.5184  -0.5184  -0.3403  -0.3403  -0.0262  -0.0262   0.1559   0.1559

          k =-0.5000 0.2438 0.3611 ( 26376 PWs)   bands (ev):

   -24.6613 -24.6613 -10.0120 -10.0120  -9.9496  -9.9496  -9.8542  -9.8542
    -5.3350  -5.3350  -5.0709  -5.0709  -1.5507  -1.5507  -1.0101  -1.0101
    -0.4192  -0.4192  -0.2316  -0.2316   0.0597   0.0597   0.2023   0.2023

          k =-0.5000 0.2438-0.7221 ( 26368 PWs)   bands (ev):

   -24.6570 -24.6570 -10.1557 -10.1557  -9.8885  -9.8885  -9.8703  -9.8703
    -5.2457  -5.2457  -4.9475  -4.9475  -1.9545  -1.9545  -0.9684  -0.9684
    -0.3808  -0.3808  -0.1985  -0.1985   0.1095   0.1095   0.2347   0.2347

          k =-0.5000-0.4875 0.0000 ( 26388 PWs)   bands (ev):

   -24.6655 -24.6655 -10.0647 -10.0647  -9.8432  -9.8432  -9.7871  -9.7871
    -5.5809  -5.5809  -5.0586  -5.0586  -1.1711  -1.1711  -0.8366  -0.8366
    -0.6057  -0.6057  -0.1500  -0.1500  -0.0043  -0.0043   0.0795   0.0795

          k =-0.5000-0.4875 0.3611 ( 26396 PWs)   bands (ev):

   -24.6613 -24.6613 -10.0004 -10.0004  -9.9732  -9.9732  -9.8434  -9.8434
    -5.2498  -5.2498  -5.1637  -5.1637  -1.5325  -1.5325  -1.0577  -1.0577
    -0.2809  -0.2809  -0.1396  -0.1396  -0.0059  -0.0059   0.0935   0.0935

          k =-0.5000-0.4875-0.7221 ( 26400 PWs)   bands (ev):

   -24.6570 -24.6570 -10.1400 -10.1400  -9.9025  -9.9025  -9.8751  -9.8751
    -5.2768  -5.2768  -4.9121  -4.9121  -1.8213  -1.8213  -1.2236  -1.2236
    -0.1841  -0.1841  -0.1346  -0.1346   0.0074   0.0074   0.2037   0.2037

     highest occupied level (ev):     0.3656

!    total energy              =    -156.45153649 Ry
     estimated scf accuracy    <          5.8E-11 Ry

     The total energy is the sum of the following terms:
     one-electron contribution =     -26.34934634 Ry
     hartree contribution      =      26.41406468 Ry
     xc contribution           =     -48.69239200 Ry
     ewald contribution        =    -107.82386283 Ry

     convergence has been achieved in  11 iterations

     Forces acting on atoms (cartesian axes, Ry/au):

     atom    1 type  2   force =     0.00000000    0.00000000    0.00000848
     atom    2 type  2   force =     0.00000000    0.00000000   -0.00000848
     atom    3 type  1   force =     0.00048941    0.00251383   -0.00001597
     atom    4 type  1   force =    -0.00048941   -0.00251383   -0.00001597
     atom    5 type  1   force =     0.00048941   -0.00251383    0.00001597
     atom    6 type  1   force =    -0.00048941    0.00251383    0.00001597
     atom    7 type  3   force =     0.02280264   -0.00581916   -0.00002330
     atom    8 type  3   force =    -0.02280264    0.00581916   -0.00002330
     atom    9 type  3   force =     0.02280264    0.00581916    0.00002330
     atom   10 type  3   force =    -0.02280264   -0.00581916    0.00002330
     atom   11 type  3   force =    -0.01505970   -0.01825899    0.00000942
     atom   12 type  3   force =     0.01505970    0.01825899    0.00000942
     atom   13 type  3   force =    -0.01505970    0.01825899   -0.00000942
     atom   14 type  3   force =     0.01505970   -0.01825899   -0.00000942
     atom   15 type  3   force =    -0.00283815    0.01341101    0.02036389
     atom   16 type  3   force =     0.00283815   -0.01341101    0.02036389
     atom   17 type  3   force =    -0.00283815   -0.01341101   -0.02036389
     atom   18 type  3   force =     0.00283815    0.01341101   -0.02036389
     atom   19 type  3   force =     0.00290243   -0.01343132   -0.02036671
     atom   20 type  3   force =    -0.00290243    0.01343132   -0.02036671
     atom   21 type  3   force =     0.00290243    0.01343132    0.02036671
     atom   22 type  3   force =    -0.00290243   -0.01343132    0.02036671

     Total force =     0.096474     Total SCF correction =     0.000004


     Computing stress (Cartesian axis) and pressure

          total   stress  (Ry/bohr**3)                   (kbar)     P=      -47.42
  -0.00030054   0.00000000   0.00000000          -44.21        0.00        0.00
   0.00000000  -0.00030630   0.00000000            0.00      -45.06        0.00
   0.00000000   0.00000000  -0.00036019            0.00        0.00      -52.99

     Volume is kept fixed: isostatic pressure set to zero

     BFGS Geometry Optimization
     Energy error            =      0.0E+00 Ry
     Gradient error          =      2.3E-02 Ry/Bohr
     Cell gradient error     =      5.6E+00 kbar

     number of scf cycles    =   1
     number of bfgs steps    =   0

     enthalpy           new  =    -156.4515364901 Ry

     new trust radius        =       0.0245688260 bohr
ibrav =      8
 celldm(1) =     13.01387904
 celldm(2) =      1.02542323
 celldm(3) =      0.69136215
Input lattice vectors:
     1.00054536     0.00000000     0.00000000
     0.00000000     1.02598245     0.00000000
     0.00000000     0.00000000     0.69173919
New lattice vectors in INITIAL alat:
     1.00054536     0.00000000     0.00000000
     0.00000000     1.02598245     0.00000000
     0.00000000     0.00000000     0.69173919
New lattice vectors in NEW alat (for information only):
     1.00000000     0.00000000     0.00000000
     0.00000000     1.02542323     0.00000000
     0.00000000     0.00000000     0.69136215
Discrepancy in bohr =     0.000000    0.000000    0.000000
     new conv_thr            =            1.0E-10 Ry

     new unit-cell volume =   1562.53247 a.u.^3 (   231.54342 Ang^3 )
     density =      2.39550 g/cm^3

CELL_PARAMETERS (alat= 13.00678570)
   1.000545357   0.000000000   0.000000000
   0.000000000   1.025982451   0.000000000
   0.000000000   0.000000000   0.691739192

ATOMIC_POSITIONS (crystal)
Ba               0.5000000000        0.5000000000        0.5001001073
Ba               0.0000000000        0.0000000000        0.9998998927
B                0.6102946436        0.2393908322        0.0000638838
B                0.3897053564        0.7606091678        0.0000638838
B                0.1102946436        0.2606091678        0.4999361162
B                0.8897053564        0.7393908322        0.4999361162
H                0.4358503866        0.2917194899        0.0002283461
H                0.5641496134        0.7082805101        0.0002283461
H                0.9358503866        0.2082805101        0.4997716539
H                0.0641496134        0.7917194899        0.4997716539
H                0.7209024340        0.3821862060       -0.0000073253
H                0.2790975660        0.6178137940       -0.0000073253
H                0.2209024340        0.1178137940        0.5000073253
H                0.7790975660        0.8821862060        0.5000073253
H                0.6390317188        0.1430997646        0.7827596053
H                0.3609682812        0.8569002354        0.7827596053
H                0.1390317188        0.3569002354        0.7172403947
H                0.8609682812        0.6430997646        0.7172403947
H                0.3607559780        0.8569490223        0.2172633440
H                0.6392440220        0.1430509777        0.2172633440
H                0.8607559780        0.6430509777        0.2827366560
H                0.1392440220        0.3569490223        0.2827366560



     Writing config-only to output data dir ./pwscf.save/ :
     XML data file
     NEW-OLD atomic charge density approx. for the potential

     total cpu time spent up to now is      284.5 secs

     Self-consistent Calculation

     iteration #  1     ecut=   100.00 Ry     beta= 0.70
     Davidson diagonalization with overlap
     ethr =  1.00E-06,  avg # of iterations =  5.0

     total cpu time spent up to now is      310.4 secs

     total energy              =    -156.45856525 Ry
     estimated scf accuracy    <       0.00228560 Ry

     iteration #  2     ecut=   100.00 Ry     beta= 0.70
     Davidson diagonalization with overlap
     ethr =  4.76E-06,  avg # of iterations =  2.0

     total cpu time spent up to now is      327.6 secs

     total energy              =    -156.45926332 Ry
     estimated scf accuracy    <       0.00059852 Ry

     iteration #  3     ecut=   100.00 Ry     beta= 0.70
     Davidson diagonalization with overlap
     ethr =  1.25E-06,  avg # of iterations =  2.0

     total cpu time spent up to now is      344.7 secs

     total energy              =    -156.45933970 Ry
     estimated scf accuracy    <       0.00000947 Ry

     iteration #  4     ecut=   100.00 Ry     beta= 0.70
     Davidson diagonalization with overlap
     ethr =  1.97E-08,  avg # of iterations =  3.0

     total cpu time spent up to now is      364.5 secs

     total energy              =    -156.45934457 Ry
     estimated scf accuracy    <       0.00000671 Ry

     iteration #  5     ecut=   100.00 Ry     beta= 0.70
     Davidson diagonalization with overlap
     ethr =  1.40E-08,  avg # of iterations =  2.0

     total cpu time spent up to now is      381.6 secs

     total energy              =    -156.45934491 Ry
     estimated scf accuracy    <       0.00000054 Ry

     iteration #  6     ecut=   100.00 Ry     beta= 0.70
     Davidson diagonalization with overlap
     ethr =  1.12E-09,  avg # of iterations =  2.8

     total cpu time spent up to now is      399.2 secs

     total energy              =    -156.45934513 Ry
     estimated scf accuracy    <       0.00000014 Ry

     iteration #  7     ecut=   100.00 Ry     beta= 0.70
     Davidson diagonalization with overlap
     ethr =  2.83E-10,  avg # of iterations =  2.0

     total cpu time spent up to now is      416.3 secs

     total energy              =    -156.45934515 Ry
     estimated scf accuracy    <          3.7E-09 Ry

     iteration #  8     ecut=   100.00 Ry     beta= 0.70
     Davidson diagonalization with overlap
     ethr =  7.61E-12,  avg # of iterations =  5.6

     total cpu time spent up to now is      441.6 secs

     End of self-consistent calculation

          k = 0.0000 0.0000 0.0000 ( 26431 PWs)   bands (ev):

   -24.6899 -24.6844 -10.0830 -10.0245  -9.8902  -9.8650  -9.8292  -9.7858
    -6.2667  -5.4043  -4.9152  -4.7470  -1.9872  -1.1574  -1.1269  -0.7613
    -0.4187  -0.4153  -0.4124  -0.2522  -0.1108   0.2480   0.2809   0.3164

          k = 0.0000 0.0000 0.3614 ( 26407 PWs)   bands (ev):

   -24.6848 -24.6809 -10.0157 -10.0080  -9.9876  -9.9772  -9.8785  -9.8651
    -5.8643  -5.2168  -5.0306  -4.9167  -1.6643  -1.4275  -0.9693  -0.9203
    -0.8087  -0.7140  -0.3831  -0.1282   0.0872   0.0883   0.1558   0.2981

          k = 0.0000 0.0000-0.7228 ( 26412 PWs)   bands (ev):

   -24.6785 -24.6785 -10.1674 -10.1673  -9.9132  -9.9132  -9.8898  -9.8898
    -5.2526  -5.2521  -5.1194  -5.1189  -1.4252  -1.4248  -1.4033  -1.4018
    -0.4413  -0.4405  -0.4080  -0.4065   0.1071   0.1074   0.1335   0.1341

          k = 0.0000 0.2437 0.0000 ( 26414 PWs)   bands (ev):

   -24.6891 -24.6852 -10.0616 -10.0040  -9.9233  -9.8884  -9.8227  -9.7920
    -6.1026  -5.3364  -5.1461  -4.8494  -1.6782  -1.3160  -1.2090  -0.5194
    -0.5083  -0.4837  -0.2133  -0.1199  -0.0332  -0.0325   0.1723   0.2545

          k = 0.0000 0.2437 0.3614 ( 26382 PWs)   bands (ev):

   -24.6842 -24.6815 -10.0418 -10.0101  -9.9630  -9.9591  -9.8827  -9.8792
    -5.7669  -5.2742  -5.0762  -4.9571  -1.4897  -1.4507  -1.2267  -0.7354
    -0.6958  -0.5108  -0.4992  -0.0840   0.0136   0.0332   0.1404   0.1966

          k = 0.0000 0.2437-0.7228 ( 26386 PWs)   bands (ev):

   -24.6785 -24.6785 -10.1773 -10.1773  -9.9013  -9.9013  -9.8892  -9.8892
    -5.4339  -5.4338  -4.9329  -4.9329  -1.5131  -1.5125  -1.2687  -1.2680
    -0.3774  -0.3760  -0.3709  -0.3707  -0.0325  -0.0324   0.1276   0.1279

          k = 0.0000-0.4873 0.0000 ( 26398 PWs)   bands (ev):

   -24.6871 -24.6871 -10.0046 -10.0046  -9.9411  -9.9411  -9.8072  -9.8072
    -5.6820  -5.6820  -5.0801  -5.0801  -1.4220  -1.4220  -0.7916  -0.7916
    -0.5768  -0.5768  -0.1185  -0.1185  -0.0070  -0.0070   0.1259   0.1259

          k = 0.0000-0.4873 0.3614 ( 26390 PWs)   bands (ev):

   -24.6828 -24.6828 -10.0387 -10.0387  -9.9315  -9.9315  -9.8995  -9.8995
    -5.5209  -5.5209  -5.0383  -5.0383  -1.4299  -1.4299  -1.0318  -1.0318
    -0.4871  -0.4871  -0.2209  -0.2209  -0.0706  -0.0706   0.1243   0.1243

          k = 0.0000-0.4873-0.7228 ( 26408 PWs)   bands (ev):

   -24.6785 -24.6785 -10.1865 -10.1865  -9.8934  -9.8934  -9.8852  -9.8852
    -5.5292  -5.5292  -4.8327  -4.8327  -1.5899  -1.5899  -1.0733  -1.0733
    -0.4269  -0.4269  -0.2958  -0.2958  -0.2050  -0.2050   0.1618   0.1618

          k = 0.2499 0.0000 0.0000 ( 26409 PWs)   bands (ev):

   -24.6891 -24.6852 -10.0561 -10.0102  -9.9186  -9.8974  -9.8227  -9.7920
    -6.1099  -5.4592  -4.9355  -4.8693  -1.8151  -1.0591  -1.0259  -0.8782
    -0.4123  -0.3623  -0.2979  -0.2349  -0.1461  -0.1287   0.2243   0.2671

          k = 0.2499 0.0000 0.3614 ( 26378 PWs)   bands (ev):

   -24.6842 -24.6815 -10.0340 -10.0189  -9.9842  -9.9413  -9.8942  -9.8699
    -5.7370  -5.2246  -5.0497  -5.0237  -1.6313  -1.4011  -1.2452  -0.7922
    -0.7428  -0.5306  -0.3045  -0.1763  -0.0710   0.0642   0.2367   0.2537

          k = 0.2499 0.0000-0.7228 ( 26358 PWs)   bands (ev):

   -24.6785 -24.6785 -10.1802 -10.1801  -9.9051  -9.9050  -9.8868  -9.8868
    -5.2633  -5.2629  -5.0862  -5.0859  -1.8399  -1.8394  -1.0348  -1.0344
    -0.4447  -0.4444  -0.1840  -0.1825  -0.0534  -0.0533   0.1708   0.1711

          k = 0.2499 0.2437 0.0000 ( 26382 PWs)   bands (ev):

   -24.6885 -24.6858 -10.0741  -9.9934  -9.9517  -9.8693  -9.8180  -9.7963
    -5.9833  -5.4257  -5.1224  -4.9173  -1.5627  -1.2710  -1.0404  -0.6163
    -0.5471  -0.5089  -0.2388  -0.1114  -0.0837  -0.0268   0.0586   0.1874

          k = 0.2499 0.2437 0.3614 ( 26387 PWs)   bands (ev):

   -24.6838 -24.6819 -10.0340 -10.0095 -10.0072  -9.9300  -9.8981  -9.8668
    -5.6545  -5.2356  -5.1462  -5.0288  -1.5915  -1.3527  -1.2907  -0.7858
    -0.6108  -0.4645  -0.3611  -0.1676  -0.0755   0.0305   0.1605   0.2364

          k = 0.2499 0.2437-0.7228 ( 26382 PWs)   bands (ev):

   -24.6785 -24.6785 -10.1855 -10.1691  -9.9175  -9.8942  -9.8904  -9.8877
    -5.4308  -5.3070  -5.0386  -4.9127  -1.8160  -1.7557  -1.0863  -1.0274
    -0.4826  -0.4781  -0.2051  -0.1697  -0.0145  -0.0020   0.1202   0.1622

          k = 0.2499-0.4873 0.0000 ( 26386 PWs)   bands (ev):

   -24.6871 -24.6871 -10.0553 -10.0553  -9.8920  -9.8920  -9.8070  -9.8070
    -5.6602  -5.6602  -5.0987  -5.0987  -1.3245  -1.3245  -0.8051  -0.8051
    -0.6047  -0.6047  -0.1723  -0.1723   0.0198   0.0198   0.0587   0.0587

          k = 0.2499-0.4873 0.3614 ( 26398 PWs)   bands (ev):

   -24.6828 -24.6828 -10.0321 -10.0321  -9.9668  -9.9668  -9.8753  -9.8753
    -5.4459  -5.4459  -5.1014  -5.1014  -1.5004  -1.5004  -0.9979  -0.9979
    -0.4802  -0.4802  -0.1921  -0.1921  -0.0702  -0.0702   0.1378   0.1378

          k = 0.2499-0.4873-0.7228 ( 26388 PWs)   bands (ev):

   -24.6785 -24.6785 -10.1752 -10.1752  -9.9063  -9.9063  -9.8911  -9.8911
    -5.4481  -5.4481  -4.8916  -4.8916  -1.7207  -1.7207  -1.1238  -1.1238
    -0.3849  -0.3849  -0.2666  -0.2666  -0.0269  -0.0269   0.1515   0.1515

          k =-0.4997 0.0000 0.0000 ( 26394 PWs)   bands (ev):

   -24.6871 -24.6871  -9.9931  -9.9931  -9.9578  -9.9578  -9.8072  -9.8072
    -5.7438  -5.7438  -4.9609  -4.9609  -1.4321  -1.4321  -0.7056  -0.7056
    -0.3720  -0.3720  -0.3464  -0.3464  -0.2496  -0.2496   0.1343   0.1343

          k =-0.4997 0.0000 0.3614 ( 26386 PWs)   bands (ev):

   -24.6828 -24.6828 -10.0400 -10.0400  -9.9453  -9.9453  -9.8912  -9.8912
    -5.4357  -5.4357  -5.0850  -5.0850  -1.5477  -1.5477  -1.0449  -1.0449
    -0.4883  -0.4883  -0.3142  -0.3142   0.0283   0.0283   0.2207   0.2207

          k =-0.4997 0.0000-0.7228 ( 26364 PWs)   bands (ev):

   -24.6785 -24.6785 -10.1920 -10.1920  -9.8995  -9.8995  -9.8820  -9.8820
    -5.2742  -5.2742  -5.0515  -5.0515  -2.0308  -2.0308  -0.8026  -0.8026
    -0.4590  -0.4590  -0.2896  -0.2896   0.1051   0.1051   0.1485   0.1485

          k =-0.4997 0.2437 0.0000 ( 26394 PWs)   bands (ev):

   -24.6871 -24.6871 -10.0544 -10.0544  -9.8955  -9.8955  -9.8070  -9.8070
    -5.6968  -5.6968  -5.0337  -5.0337  -1.3368  -1.3368  -0.7118  -0.7118
    -0.5438  -0.5438  -0.3757  -0.3757  -0.0601  -0.0601   0.1110   0.1110

          k =-0.4997 0.2437 0.3614 ( 26376 PWs)   bands (ev):

   -24.6828 -24.6828 -10.0329 -10.0329  -9.9704  -9.9704  -9.8743  -9.8743
    -5.3908  -5.3908  -5.1371  -5.1371  -1.5500  -1.5500  -1.0296  -1.0296
    -0.4519  -0.4519  -0.2672  -0.2672   0.0198   0.0198   0.1596   0.1596

          k =-0.4997 0.2437-0.7228 ( 26368 PWs)   bands (ev):

   -24.6785 -24.6785 -10.1782 -10.1782  -9.9081  -9.9081  -9.8904  -9.8904
    -5.3123  -5.3123  -5.0092  -5.0092  -1.9468  -1.9468  -0.9804  -0.9804
    -0.4149  -0.4149  -0.2363  -0.2363   0.0691   0.0691   0.1902   0.1902

          k =-0.4997-0.4873 0.0000 ( 26388 PWs)   bands (ev):

   -24.6871 -24.6871 -10.0855 -10.0855  -9.8635  -9.8635  -9.8068  -9.8068
    -5.6382  -5.6382  -5.1172  -5.1172  -1.1968  -1.1968  -0.8535  -0.8535
    -0.6304  -0.6304  -0.1867  -0.1867  -0.0439  -0.0439   0.0444   0.0444

          k =-0.4997-0.4873 0.3614 ( 26396 PWs)   bands (ev):

   -24.6828 -24.6828 -10.0207 -10.0207  -9.9945  -9.9945  -9.8636  -9.8636
    -5.3090  -5.3090  -5.2258  -5.2258  -1.5329  -1.5329  -1.0783  -1.0783
    -0.3130  -0.3130  -0.1806  -0.1806  -0.0450  -0.0450   0.0562   0.0562

          k =-0.4997-0.4873-0.7228 ( 26400 PWs)   bands (ev):

   -24.6785 -24.6785 -10.1626 -10.1626  -9.9222  -9.9222  -9.8951  -9.8951
    -5.3422  -5.3422  -4.9749  -4.9749  -1.8132  -1.8132  -1.2347  -1.2347
    -0.2221  -0.2221  -0.1758  -0.1758  -0.0301  -0.0301   0.1619   0.1619

     highest occupied level (ev):     0.3164

!    total energy              =    -156.45934516 Ry
     estimated scf accuracy    <          5.3E-11 Ry

     The total energy is the sum of the following terms:
     one-electron contribution =     -27.05306449 Ry
     hartree contribution      =      26.76662110 Ry
     xc contribution           =     -48.78005418 Ry
     ewald contribution        =    -107.39284759 Ry

     convergence has been achieved in   8 iterations

     Forces acting on atoms (cartesian axes, Ry/au):

     atom    1 type  2   force =     0.00000000    0.00000000    0.00000688
     atom    2 type  2   force =     0.00000000    0.00000000   -0.00000688
     atom    3 type  1   force =     0.00067548    0.00277672   -0.00001062
     atom    4 type  1   force =    -0.00067548   -0.00277672   -0.00001062
     atom    5 type  1   force =     0.00067548   -0.00277672    0.00001062
     atom    6 type  1   force =    -0.00067548    0.00277672    0.00001062
     atom    7 type  3   force =     0.01532574   -0.00359759   -0.00001892
     atom    8 type  3   force =    -0.01532574    0.00359759   -0.00001892
     atom    9 type  3   force =     0.01532574    0.00359759    0.00001892
     atom   10 type  3   force =    -0.01532574   -0.00359759    0.00001892
     atom   11 type  3   force =    -0.01015106   -0.01169378    0.00000629
     atom   12 type  3   force =     0.01015106    0.01169378    0.00000629
     atom   13 type  3   force =    -0.01015106    0.01169378   -0.00000629
     atom   14 type  3   force =     0.01015106   -0.01169378   -0.00000629
     atom   15 type  3   force =    -0.00157104    0.00898750    0.01317897
     atom   16 type  3   force =     0.00157104   -0.00898750    0.01317897
     atom   17 type  3   force =    -0.00157104   -0.00898750   -0.01317897
     atom   18 type  3   force =     0.00157104    0.00898750   -0.01317897
     atom   19 type  3   force =     0.00162341   -0.00900529   -0.01318691
     atom   20 type  3   force =    -0.00162341    0.00900529   -0.01318691
     atom   21 type  3   force =     0.00162341    0.00900529    0.01318691
     atom   22 type  3   force =    -0.00162341   -0.00900529    0.01318691

     Total force =     0.063571     Total SCF correction =     0.000001


     Computing stress (Cartesian axis) and pressure

          total   stress  (Ry/bohr**3)                   (kbar)     P=      -37.87
  -0.00024022   0.00000000   0.00000000          -35.34        0.00        0.00
   0.00000000  -0.00024424   0.00000000            0.00      -35.93        0.00
   0.00000000   0.00000000  -0.00028793            0.00        0.00      -42.36

     Volume is kept fixed: isostatic pressure set to zero
     Energy error            =      7.8E-03 Ry
     Gradient error          =      1.5E-02 Ry/Bohr
     Cell gradient error     =      4.5E+00 kbar

     number of scf cycles    =   2
     number of bfgs steps    =   1

     enthalpy           old  =    -156.4515364901 Ry
     enthalpy           new  =    -156.4593451562 Ry

     CASE: enthalpy          _new < enthalpy          _old

     new trust radius        =       0.0368339902 bohr
ibrav =      8
 celldm(1) =     13.02677520
 celldm(2) =      1.02518713
 celldm(3) =      0.68946964
Input lattice vectors:
     1.00153685     0.00000000     0.00000000
     0.00000000     1.02676269     0.00000000
     0.00000000     0.00000000     0.69052925
New lattice vectors in INITIAL alat:
     1.00153685     0.00000000     0.00000000
     0.00000000     1.02676269     0.00000000
     0.00000000     0.00000000     0.69052925
New lattice vectors in NEW alat (for information only):
     1.00000000     0.00000000     0.00000000
     0.00000000     1.02518713     0.00000000
     0.00000000     0.00000000     0.68946964
Discrepancy in bohr =     0.000000    0.000000    0.000000
     new conv_thr            =            1.0E-10 Ry

     new unit-cell volume =   1562.53247 a.u.^3 (   231.54342 Ang^3 )
     density =      2.39550 g/cm^3

CELL_PARAMETERS (alat= 13.00678570)
   1.001536852   0.000000000   0.000000000
   0.000000000   1.026762695   0.000000000
   0.000000000   0.000000000   0.690529251

ATOMIC_POSITIONS (crystal)
Ba               0.5000000000        0.5000000000        0.5001018599
Ba               0.0000000000        0.0000000000        0.9998981401
B                0.6104137089        0.2398682741        0.0000611766
B                0.3895862911        0.7601317259        0.0000611766
B                0.1104137089        0.2601317259        0.4999388234
B                0.8895862911        0.7398682741        0.4999388234
H                0.4385582269        0.2910995355        0.0002235278
H                0.5614417731        0.7089004645        0.0002235278
H                0.9385582269        0.2089004645        0.4997764722
H                0.0614417731        0.7910995355        0.4997764722
H                0.7191089098        0.3801714254       -0.0000057234
H                0.2808910902        0.6198285746       -0.0000057234
H                0.2191089098        0.1198285746        0.5000057234
H                0.7808910902        0.8801714254        0.5000057234
H                0.6387538634        0.1446479335        0.7861182351
H                0.3612461366        0.8553520665        0.7861182351
H                0.1387538634        0.3553520665        0.7138817649
H                0.8612461366        0.6446479335        0.7138817649
H                0.3610430776        0.8553977922        0.2139026966
H                0.6389569224        0.1446022078        0.2139026966
H                0.8610430776        0.6446022078        0.2860973034
H                0.1389569224        0.3553977922        0.2860973034



     Writing config-only to output data dir ./pwscf.save/ :
     XML data file
     NEW-OLD atomic charge density approx. for the potential

     total cpu time spent up to now is      475.1 secs

     Self-consistent Calculation

     iteration #  1     ecut=   100.00 Ry     beta= 0.70
     Davidson diagonalization with overlap
     ethr =  1.00E-06,  avg # of iterations =  5.0

     total cpu time spent up to now is      504.3 secs

     total energy              =    -156.46301705 Ry
     estimated scf accuracy    <       0.00549163 Ry

     iteration #  2     ecut=   100.00 Ry     beta= 0.70
     Davidson diagonalization with overlap
     ethr =  1.14E-05,  avg # of iterations =  2.0

     total cpu time spent up to now is      521.3 secs

     total energy              =    -156.46468442 Ry
     estimated scf accuracy    <       0.00143669 Ry

     iteration #  3     ecut=   100.00 Ry     beta= 0.70
     Davidson diagonalization with overlap
     ethr =  2.99E-06,  avg # of iterations =  2.0

     total cpu time spent up to now is      538.4 secs

     total energy              =    -156.46487552 Ry
     estimated scf accuracy    <       0.00001940 Ry

     iteration #  4     ecut=   100.00 Ry     beta= 0.70
     Davidson diagonalization with overlap
     ethr =  4.04E-08,  avg # of iterations =  3.0

     total cpu time spent up to now is      558.4 secs

     total energy              =    -156.46488499 Ry
     estimated scf accuracy    <       0.00001126 Ry

     iteration #  5     ecut=   100.00 Ry     beta= 0.70
     Davidson diagonalization with overlap
     ethr =  2.35E-08,  avg # of iterations =  2.0

     total cpu time spent up to now is      575.5 secs

     total energy              =    -156.46488585 Ry
     estimated scf accuracy    <       0.00000066 Ry

     iteration #  6     ecut=   100.00 Ry     beta= 0.70
     Davidson diagonalization with overlap
     ethr =  1.37E-09,  avg # of iterations =  3.0

     total cpu time spent up to now is      593.5 secs

     total energy              =    -156.46488614 Ry
     estimated scf accuracy    <       0.00000022 Ry

     iteration #  7     ecut=   100.00 Ry     beta= 0.70
     Davidson diagonalization with overlap
     ethr =  4.61E-10,  avg # of iterations =  2.0

     total cpu time spent up to now is      610.5 secs

     total energy              =    -156.46488618 Ry
     estimated scf accuracy    <          4.8E-09 Ry

     iteration #  8     ecut=   100.00 Ry     beta= 0.70
     Davidson diagonalization with overlap
     ethr =  9.94E-12,  avg # of iterations =  5.9

     total cpu time spent up to now is      638.3 secs

     total energy              =    -156.46488618 Ry
     estimated scf accuracy    <          2.3E-10 Ry

     iteration #  9     ecut=   100.00 Ry     beta= 0.70
     Davidson diagonalization with overlap
     ethr =  4.86E-13,  avg # of iterations =  4.6

     total cpu time spent up to now is      660.1 secs

     total energy              =    -156.46488618 Ry
     estimated scf accuracy    <          2.3E-10 Ry

     iteration # 10     ecut=   100.00 Ry     beta= 0.70
     Davidson diagonalization with overlap
     ethr =  4.75E-13,  avg # of iterations =  1.0

     total cpu time spent up to now is      673.6 secs

     total energy              =    -156.46488618 Ry
     estimated scf accuracy    <          2.8E-10 Ry

     iteration # 11     ecut=   100.00 Ry     beta= 0.70
     Davidson diagonalization with overlap
     ethr =  4.75E-13,  avg # of iterations =  5.0

     total cpu time spent up to now is      696.1 secs

     total energy              =    -156.46488618 Ry
     estimated scf accuracy    <          1.2E-09 Ry

     iteration # 12     ecut=   100.00 Ry     beta= 0.70
     Davidson diagonalization with overlap
     ethr =  4.75E-13,  avg # of iterations =  2.0

     total cpu time spent up to now is      714.5 secs

     total energy              =    -156.46488618 Ry
     estimated scf accuracy    <          3.1E-10 Ry

     iteration # 13     ecut=   100.00 Ry     beta= 0.70
     Davidson diagonalization with overlap
     ethr =  4.75E-13,  avg # of iterations =  2.4

     total cpu time spent up to now is      732.2 secs

     End of self-consistent calculation

          k = 0.0000 0.0000 0.0000 ( 26431 PWs)   bands (ev):

   -24.7219 -24.7164 -10.1153 -10.0556  -9.9205  -9.8951  -9.8582  -9.8155
    -6.3336  -5.5077  -5.0147  -4.8531  -1.9902  -1.1780  -1.1686  -0.8228
    -0.4642  -0.4463  -0.4418  -0.2967  -0.1481   0.1789   0.2063   0.2372

          k = 0.0000 0.0000 0.3620 ( 26407 PWs)   bands (ev):

   -24.7167 -24.7128 -10.0466 -10.0403 -10.0204 -10.0075  -9.9084  -9.8950
    -5.9343  -5.3161  -5.1340  -5.0253  -1.6619  -1.4369  -0.9814  -0.9638
    -0.8443  -0.7494  -0.4315  -0.1862   0.0197   0.0206   0.0954   0.2253

          k = 0.0000 0.0000-0.7241 ( 26412 PWs)   bands (ev):

   -24.7103 -24.7103 -10.2024 -10.2023  -9.9424  -9.9423  -9.9197  -9.9197
    -5.3378  -5.3373  -5.2283  -5.2279  -1.4259  -1.4255  -1.4056  -1.4041
    -0.4968  -0.4962  -0.4600  -0.4584   0.0446   0.0447   0.0637   0.0642

          k = 0.0000 0.2435 0.0000 ( 26414 PWs)   bands (ev):

   -24.7211 -24.7172 -10.0937 -10.0354  -9.9533  -9.9184  -9.8518  -9.8216
    -6.1723  -5.4403  -5.2360  -4.9547  -1.6917  -1.3364  -1.2422  -0.5522
    -0.5480  -0.5475  -0.2611  -0.1626  -0.0987  -0.0754   0.1040   0.1813

          k = 0.0000 0.2435 0.3620 ( 26382 PWs)   bands (ev):

   -24.7161 -24.7134 -10.0733 -10.0423  -9.9947  -9.9896  -9.9127  -9.9089
    -5.8406  -5.3711  -5.1761  -5.0636  -1.4929  -1.4591  -1.2460  -0.7642
    -0.7336  -0.5657  -0.5407  -0.1425  -0.0511  -0.0329   0.0774   0.1279

          k = 0.0000 0.2435-0.7241 ( 26386 PWs)   bands (ev):

   -24.7103 -24.7103 -10.2122 -10.2121  -9.9304  -9.9304  -9.9191  -9.9191
    -5.5290  -5.5290  -5.0313  -5.0312  -1.5159  -1.5153  -1.2715  -1.2709
    -0.4329  -0.4326  -0.4245  -0.4231  -0.0918  -0.0918   0.0572   0.0575

          k = 0.0000-0.4870 0.0000 ( 26398 PWs)   bands (ev):

   -24.7191 -24.7191 -10.0369 -10.0369  -9.9707  -9.9707  -9.8366  -9.8366
    -5.7606  -5.7606  -5.1831  -5.1831  -1.4403  -1.4403  -0.8358  -0.8358
    -0.6117  -0.6117  -0.1876  -0.1876  -0.0510  -0.0510   0.0615   0.0615

          k = 0.0000-0.4870 0.3620 ( 26390 PWs)   bands (ev):

   -24.7147 -24.7147 -10.0705 -10.0705  -9.9632  -9.9632  -9.9289  -9.9289
    -5.6050  -5.6050  -5.1406  -5.1406  -1.4375  -1.4375  -1.0561  -1.0561
    -0.5337  -0.5337  -0.2696  -0.2696  -0.1391  -0.1391   0.0594   0.0594

          k = 0.0000-0.4870-0.7241 ( 26408 PWs)   bands (ev):

   -24.7103 -24.7103 -10.2211 -10.2211  -9.9228  -9.9228  -9.9150  -9.9150
    -5.6255  -5.6255  -4.9293  -4.9293  -1.5925  -1.5925  -1.0766  -1.0766
    -0.4861  -0.4861  -0.3452  -0.3452  -0.2649  -0.2649   0.0897   0.0897

          k = 0.2496 0.0000 0.0000 ( 26409 PWs)   bands (ev):

   -24.7211 -24.7172 -10.0883 -10.0413  -9.9490  -9.9273  -9.8518  -9.8216
    -6.1803  -5.5564  -5.0362  -4.9724  -1.8216  -1.0848  -1.0602  -0.9263
    -0.4415  -0.4087  -0.3362  -0.2901  -0.1884  -0.1880   0.1507   0.1880

          k = 0.2496 0.0000 0.3620 ( 26378 PWs)   bands (ev):

   -24.7161 -24.7134 -10.0658 -10.0510 -10.0155  -9.9725  -9.9238  -9.9000
    -5.8106  -5.3206  -5.1535  -5.1292  -1.6259  -1.4188  -1.2506  -0.8294
    -0.7901  -0.5713  -0.3599  -0.2342  -0.1277   0.0033   0.1634   0.1867

          k = 0.2496 0.0000-0.7241 ( 26358 PWs)   bands (ev):

   -24.7103 -24.7103 -10.2151 -10.2150  -9.9341  -9.9341  -9.9168  -9.9168
    -5.3621  -5.3617  -5.1825  -5.1822  -1.8326  -1.8322  -1.0477  -1.0473
    -0.5012  -0.5009  -0.2380  -0.2365  -0.1137  -0.1135   0.1020   0.1022

          k = 0.2496 0.2435 0.0000 ( 26382 PWs)   bands (ev):

   -24.7205 -24.7178 -10.1057 -10.0256  -9.9812  -9.8995  -9.8472  -9.8259
    -6.0570  -5.5229  -5.2162  -5.0181  -1.5802  -1.2965  -1.0760  -0.6616
    -0.5805  -0.5447  -0.2989  -0.1546  -0.1471  -0.0716  -0.0119   0.1188

          k = 0.2496 0.2435 0.3620 ( 26387 PWs)   bands (ev):

   -24.7157 -24.7138 -10.0661 -10.0402 -10.0390  -9.9618  -9.9275  -9.8967
    -5.7316  -5.3334  -5.2428  -5.1331  -1.5909  -1.3590  -1.3113  -0.8230
    -0.6555  -0.5083  -0.4142  -0.2220  -0.1377  -0.0334   0.0949   0.1692

          k = 0.2496 0.2435-0.7241 ( 26382 PWs)   bands (ev):

   -24.7103 -24.7103 -10.2205 -10.2040  -9.9466  -9.9236  -9.9199  -9.9178
    -5.5293  -5.4040  -5.1364  -5.0087  -1.8097  -1.7487  -1.1007  -1.0396
    -0.5375  -0.5332  -0.2544  -0.2245  -0.0820  -0.0642   0.0581   0.0878

          k = 0.2496-0.4870 0.0000 ( 26386 PWs)   bands (ev):

   -24.7191 -24.7191 -10.0867 -10.0867  -9.9223  -9.9223  -9.8364  -9.8364
    -5.7440  -5.7440  -5.1952  -5.1952  -1.3501  -1.3501  -0.8485  -0.8485
    -0.6381  -0.6381  -0.2312  -0.2312  -0.0260  -0.0260  -0.0085  -0.0085

          k = 0.2496-0.4870 0.3620 ( 26398 PWs)   bands (ev):

   -24.7147 -24.7147 -10.0635 -10.0635  -9.9983  -9.9983  -9.9053  -9.9053
    -5.5326  -5.5326  -5.2011  -5.2011  -1.5047  -1.5047  -1.0288  -1.0288
    -0.5243  -0.5243  -0.2469  -0.2469  -0.1336  -0.1336   0.0736   0.0736

          k = 0.2496-0.4870-0.7241 ( 26388 PWs)   bands (ev):

   -24.7103 -24.7103 -10.2100 -10.2100  -9.9354  -9.9354  -9.9209  -9.9209
    -5.5458  -5.5458  -4.9882  -4.9882  -1.7151  -1.7151  -1.1378  -1.1378
    -0.4404  -0.4404  -0.3183  -0.3183  -0.0904  -0.0904   0.0820   0.0820

          k =-0.4992 0.0000 0.0000 ( 26394 PWs)   bands (ev):

   -24.7191 -24.7191 -10.0257 -10.0257  -9.9869  -9.9869  -9.8366  -9.8366
    -5.8250  -5.8250  -5.0637  -5.0637  -1.4474  -1.4474  -0.7447  -0.7447
    -0.4082  -0.4082  -0.4027  -0.4027  -0.2968  -0.2968   0.0591   0.0591

          k =-0.4992 0.0000 0.3620 ( 26386 PWs)   bands (ev):

   -24.7147 -24.7147 -10.0719 -10.0719  -9.9764  -9.9764  -9.9211  -9.9211
    -5.5191  -5.5191  -5.1900  -5.1900  -1.5461  -1.5461  -1.0735  -1.0735
    -0.5394  -0.5394  -0.3674  -0.3674  -0.0290  -0.0290   0.1494   0.1494

          k =-0.4992 0.0000-0.7241 ( 26364 PWs)   bands (ev):

   -24.7103 -24.7103 -10.2268 -10.2268  -9.9286  -9.9286  -9.9120  -9.9120
    -5.3801  -5.3801  -5.1417  -5.1417  -2.0198  -2.0198  -0.8198  -0.8198
    -0.5152  -0.5152  -0.3447  -0.3447   0.0474   0.0474   0.0757   0.0757

          k =-0.4992 0.2435 0.0000 ( 26394 PWs)   bands (ev):

   -24.7191 -24.7191 -10.0857 -10.0857  -9.9258  -9.9258  -9.8364  -9.8364
    -5.7813  -5.7813  -5.1305  -5.1305  -1.3617  -1.3617  -0.7515  -0.7515
    -0.5768  -0.5768  -0.4322  -0.4322  -0.1057  -0.1057   0.0390   0.0390

          k =-0.4992 0.2435 0.3620 ( 26376 PWs)   bands (ev):

   -24.7147 -24.7147 -10.0644 -10.0644 -10.0018 -10.0018  -9.9043  -9.9043
    -5.4769  -5.4769  -5.2384  -5.2384  -1.5507  -1.5507  -1.0597  -1.0597
    -0.5036  -0.5036  -0.3195  -0.3195  -0.0397  -0.0397   0.0927   0.0927

          k =-0.4992 0.2435-0.7241 ( 26368 PWs)   bands (ev):

   -24.7103 -24.7103 -10.2131 -10.2131  -9.9371  -9.9371  -9.9204  -9.9204
    -5.4146  -5.4146  -5.1029  -5.1029  -1.9362  -1.9362  -0.9979  -0.9979
    -0.4700  -0.4700  -0.2922  -0.2922   0.0054   0.0054   0.1225   0.1225

          k =-0.4992-0.4870 0.0000 ( 26388 PWs)   bands (ev):

   -24.7191 -24.7191 -10.1167 -10.1167  -9.8938  -9.8938  -9.8362  -9.8362
    -5.7278  -5.7278  -5.2066  -5.2066  -1.2369  -1.2369  -0.8847  -0.8847
    -0.6624  -0.6624  -0.2482  -0.2482  -0.1050  -0.1050  -0.0029  -0.0029

          k =-0.4992-0.4870 0.3620 ( 26396 PWs)   bands (ev):

   -24.7147 -24.7147 -10.0509 -10.0509 -10.0271 -10.0271  -9.8935  -9.8935
    -5.4005  -5.4005  -5.3208  -5.3208  -1.5352  -1.5352  -1.1096  -1.1096
    -0.3610  -0.3610  -0.2443  -0.2443  -0.1070  -0.1070   0.0015   0.0015

          k =-0.4992-0.4870-0.7241 ( 26400 PWs)   bands (ev):

   -24.7103 -24.7103 -10.1977 -10.1977  -9.9513  -9.9513  -9.9248  -9.9248
    -5.4423  -5.4423  -5.0708  -5.0708  -1.8029  -1.8029  -1.2506  -1.2506
    -0.2780  -0.2780  -0.2401  -0.2401  -0.0928  -0.0928   0.1000   0.1000

     highest occupied level (ev):     0.2372

!    total energy              =    -156.46488618 Ry
     estimated scf accuracy    <          7.6E-12 Ry

     The total energy is the sum of the following terms:
     one-electron contribution =     -28.16839368 Ry
     hartree contribution      =      27.32655287 Ry
     xc contribution           =     -48.91594181 Ry
     ewald contribution        =    -106.70710356 Ry

     convergence has been achieved in  13 iterations

     Forces acting on atoms (cartesian axes, Ry/au):

     atom    1 type  2   force =     0.00000000    0.00000000    0.00000434
     atom    2 type  2   force =     0.00000000    0.00000000   -0.00000434
     atom    3 type  1   force =     0.00062159    0.00200020   -0.00000797
     atom    4 type  1   force =    -0.00062159   -0.00200020   -0.00000797
     atom    5 type  1   force =     0.00062159   -0.00200020    0.00000797
     atom    6 type  1   force =    -0.00062159    0.00200020    0.00000797
     atom    7 type  3   force =     0.00315235    0.00004189   -0.00001207
     atom    8 type  3   force =    -0.00315235   -0.00004189   -0.00001207
     atom    9 type  3   force =     0.00315235   -0.00004189    0.00001207
     atom   10 type  3   force =    -0.00315235    0.00004189    0.00001207
     atom   11 type  3   force =    -0.00171687   -0.00045779    0.00000146
     atom   12 type  3   force =     0.00171687    0.00045779    0.00000146
     atom   13 type  3   force =    -0.00171687    0.00045779   -0.00000146
     atom   14 type  3   force =     0.00171687   -0.00045779   -0.00000146
     atom   15 type  3   force =     0.00044822    0.00206777    0.00177467
     atom   16 type  3   force =    -0.00044822   -0.00206777    0.00177467
     atom   17 type  3   force =     0.00044822   -0.00206777   -0.00177467
     atom   18 type  3   force =    -0.00044822    0.00206777   -0.00177467
     atom   19 type  3   force =    -0.00041595   -0.00207800   -0.00178498
     atom   20 type  3   force =     0.00041595    0.00207800   -0.00178498
     atom   21 type  3   force =    -0.00041595    0.00207800    0.00178498
     atom   22 type  3   force =     0.00041595   -0.00207800    0.00178498

     Total force =     0.011452     Total SCF correction =     0.000001


     Computing stress (Cartesian axis) and pressure

          total   stress  (Ry/bohr**3)                   (kbar)     P=      -22.64
  -0.00014231   0.00000000   0.00000000          -20.93        0.00        0.00
   0.00000000  -0.00014425   0.00000000            0.00      -21.22        0.00
   0.00000000   0.00000000  -0.00017509            0.00        0.00      -25.76

     Volume is kept fixed: isostatic pressure set to zero
     Energy error            =      5.5E-03 Ry
     Gradient error          =      3.2E-03 Ry/Bohr
     Cell gradient error     =      3.1E+00 kbar

     number of scf cycles    =   3
     number of bfgs steps    =   2

     enthalpy           old  =    -156.4593451562 Ry
     enthalpy           new  =    -156.4648861842 Ry

     CASE: enthalpy          _new < enthalpy          _old

     new trust radius        =       0.0080306703 bohr
ibrav =      8
 celldm(1) =     13.03282602
 celldm(2) =      1.02509985
 celldm(3) =      0.68856840
Input lattice vectors:
     1.00200206     0.00000000     0.00000000
     0.00000000     1.02715216     0.00000000
     0.00000000     0.00000000     0.68994695
New lattice vectors in INITIAL alat:
     1.00200206     0.00000000     0.00000000
     0.00000000     1.02715216     0.00000000
     0.00000000     0.00000000     0.68994695
New lattice vectors in NEW alat (for information only):
     1.00000000     0.00000000     0.00000000
     0.00000000     1.02509985     0.00000000
     0.00000000     0.00000000     0.68856840
Discrepancy in bohr =     0.000000    0.000000    0.000000
     new conv_thr            =            1.0E-10 Ry

     new unit-cell volume =   1562.53247 a.u.^3 (   231.54342 Ang^3 )
     density =      2.39550 g/cm^3

CELL_PARAMETERS (alat= 13.00678570)
   1.002002057   0.000000000   0.000000000
   0.000000000   1.027152157   0.000000000
   0.000000000   0.000000000   0.689946951

ATOMIC_POSITIONS (crystal)
Ba               0.5000000000        0.5000000000        0.5001026425
Ba               0.0000000000        0.0000000000        0.9998973575
B                0.6104848748        0.2401038544        0.0000597973
B                0.3895151252        0.7598961456        0.0000597973
B                0.1104848748        0.2598961456        0.4999402027
B                0.8895151252        0.7401038544        0.4999402027
H                0.4391704955        0.2910294305        0.0002213580
H                0.5608295045        0.7089705695        0.0002213580
H                0.9391704955        0.2089705695        0.4997786420
H                0.0608295045        0.7910294305        0.4997786420
H                0.7187376364        0.3798905731       -0.0000053400
H                0.2812623636        0.6201094269       -0.0000053400
H                0.2187376364        0.1201094269        0.5000053400
H                0.7812623636        0.8798905731        0.5000053400
H                0.6387619258        0.1450176773        0.7867530865
H                0.3612380742        0.8549823227        0.7867530865
H                0.1387619258        0.3549823227        0.7132469135
H                0.8612380742        0.6450176773        0.7132469135
H                0.3610390819        0.8550267691        0.2132662463
H                0.6389609181        0.1449732309        0.2132662463
H                0.8610390819        0.6449732309        0.2867337537
H                0.1389609181        0.3550267691        0.2867337537



     Writing config-only to output data dir ./pwscf.save/ :
     XML data file
     NEW-OLD atomic charge density approx. for the potential

     total cpu time spent up to now is      765.7 secs

     Self-consistent Calculation

     iteration #  1     ecut=   100.00 Ry     beta= 0.70
     Davidson diagonalization with overlap
     ethr =  1.00E-06,  avg # of iterations =  3.0

     total cpu time spent up to now is      787.3 secs

     total energy              =    -156.46504274 Ry
     estimated scf accuracy    <       0.00019046 Ry

     iteration #  2     ecut=   100.00 Ry     beta= 0.70
     Davidson diagonalization with overlap
     ethr =  3.97E-07,  avg # of iterations =  2.0

     total cpu time spent up to now is      804.4 secs

     total energy              =    -156.46509166 Ry
     estimated scf accuracy    <       0.00003021 Ry

     iteration #  3     ecut=   100.00 Ry     beta= 0.70
     Davidson diagonalization with overlap
     ethr =  6.29E-08,  avg # of iterations =  2.0

     total cpu time spent up to now is      821.5 secs

     total energy              =    -156.46509613 Ry
     estimated scf accuracy    <       0.00000030 Ry

     iteration #  4     ecut=   100.00 Ry     beta= 0.70
     Davidson diagonalization with overlap
     ethr =  6.27E-10,  avg # of iterations =  3.8

     total cpu time spent up to now is      842.9 secs

     total energy              =    -156.46509628 Ry
     estimated scf accuracy    <       0.00000020 Ry

     iteration #  5     ecut=   100.00 Ry     beta= 0.70
     Davidson diagonalization with overlap
     ethr =  4.17E-10,  avg # of iterations =  2.0

     total cpu time spent up to now is      860.0 secs

     total energy              =    -156.46509632 Ry
     estimated scf accuracy    <          1.6E-09 Ry

     iteration #  6     ecut=   100.00 Ry     beta= 0.70
     Davidson diagonalization with overlap
     ethr =  3.26E-12,  avg # of iterations =  7.6

     total cpu time spent up to now is      894.3 secs

     total energy              =    -156.46509632 Ry
     estimated scf accuracy    <          1.0E-09 Ry

     iteration #  7     ecut=   100.00 Ry     beta= 0.70
     Davidson diagonalization with overlap
     ethr =  2.19E-12,  avg # of iterations =  2.0

     total cpu time spent up to now is      911.3 secs

     End of self-consistent calculation

          k = 0.0000 0.0000 0.0000 ( 26431 PWs)   bands (ev):

   -24.7271 -24.7217 -10.1212 -10.0612  -9.9259  -9.9003  -9.8630  -9.8205
    -6.3475  -5.5289  -5.0351  -4.8751  -1.9937  -1.1837  -1.1783  -0.8378
    -0.4706  -0.4568  -0.4433  -0.3032  -0.1515   0.1634   0.1897   0.2175

          k = 0.0000 0.0000 0.3623 ( 26407 PWs)   bands (ev):

   -24.7219 -24.7180 -10.0520 -10.0467 -10.0269 -10.0127  -9.9135  -9.9000
    -5.9478  -5.3354  -5.1557  -5.0482  -1.6630  -1.4403  -0.9856  -0.9737
    -0.8508  -0.7542  -0.4410  -0.1973   0.0044   0.0046   0.0834   0.2079

          k = 0.0000 0.0000-0.7247 ( 26412 PWs)   bands (ev):

   -24.7155 -24.7155 -10.2102 -10.2100  -9.9470  -9.9470  -9.9247  -9.9247
    -5.3534  -5.3529  -5.2517  -5.2513  -1.4251  -1.4246  -1.4076  -1.4063
    -0.5086  -0.5079  -0.4712  -0.4696   0.0293   0.0293   0.0491   0.0494

          k = 0.0000 0.2434 0.0000 ( 26414 PWs)   bands (ev):

   -24.7263 -24.7225 -10.0996 -10.0411  -9.9586  -9.9236  -9.8566  -9.8266
    -6.1869  -5.4622  -5.2538  -4.9764  -1.6976  -1.3424  -1.2504  -0.5630
    -0.5548  -0.5527  -0.2747  -0.1682  -0.1155  -0.0802   0.0886   0.1647

          k = 0.0000 0.2434 0.3623 ( 26382 PWs)   bands (ev):

   -24.7213 -24.7186 -10.0792 -10.0486 -10.0007  -9.9950  -9.9180  -9.9139
    -5.8550  -5.3902  -5.1967  -5.0858  -1.4950  -1.4622  -1.2514  -0.7687
    -0.7407  -0.5778  -0.5484  -0.1542  -0.0655  -0.0490   0.0648   0.1122

          k = 0.0000 0.2434-0.7247 ( 26386 PWs)   bands (ev):

   -24.7155 -24.7155 -10.2198 -10.2197  -9.9352  -9.9352  -9.9242  -9.9242
    -5.5480  -5.5480  -5.0510  -5.0510  -1.5178  -1.5172  -1.2713  -1.2707
    -0.4457  -0.4456  -0.4355  -0.4341  -0.1040  -0.1039   0.0403   0.0405

          k = 0.0000-0.4868 0.0000 ( 26398 PWs)   bands (ev):

   -24.7244 -24.7244 -10.0429 -10.0429  -9.9757  -9.9757  -9.8415  -9.8415
    -5.7773  -5.7773  -5.2038  -5.2038  -1.4463  -1.4463  -0.8476  -0.8476
    -0.6150  -0.6150  -0.2043  -0.2043  -0.0567  -0.0567   0.0464   0.0464

          k = 0.0000-0.4868 0.3623 ( 26390 PWs)   bands (ev):

   -24.7200 -24.7200 -10.0765 -10.0765  -9.9689  -9.9689  -9.9340  -9.9340
    -5.6218  -5.6218  -5.1617  -5.1617  -1.4404  -1.4404  -1.0617  -1.0617
    -0.5428  -0.5428  -0.2785  -0.2785  -0.1558  -0.1558   0.0456   0.0456

          k = 0.0000-0.4868-0.7247 ( 26408 PWs)   bands (ev):

   -24.7155 -24.7155 -10.2286 -10.2286  -9.9277  -9.9277  -9.9200  -9.9200
    -5.6448  -5.6448  -4.9485  -4.9485  -1.5944  -1.5944  -1.0761  -1.0761
    -0.4997  -0.4997  -0.3560  -0.3560  -0.2777  -0.2777   0.0730   0.0730

          k = 0.2495 0.0000 0.0000 ( 26409 PWs)   bands (ev):

   -24.7263 -24.7225 -10.0942 -10.0469  -9.9544  -9.9325  -9.8566  -9.8266
    -6.1951  -5.5768  -5.0567  -4.9935  -1.8260  -1.0912  -1.0703  -0.9375
    -0.4431  -0.4152  -0.3409  -0.3048  -0.2010  -0.1932   0.1338   0.1683

          k = 0.2495 0.0000 0.3623 ( 26378 PWs)   bands (ev):

   -24.7213 -24.7186 -10.0718 -10.0570 -10.0212  -9.9782  -9.9288  -9.9052
    -5.8251  -5.3396  -5.1751  -5.1513  -1.6257  -1.4238  -1.2521  -0.8373
    -0.8006  -0.5785  -0.3715  -0.2474  -0.1381  -0.0096   0.1458   0.1724

          k = 0.2495 0.0000-0.7247 ( 26358 PWs)   bands (ev):

   -24.7155 -24.7155 -10.2227 -10.2226  -9.9389  -9.9388  -9.9219  -9.9218
    -5.3824  -5.3820  -5.2014  -5.2011  -1.8313  -1.8309  -1.0504  -1.0501
    -0.5133  -0.5130  -0.2497  -0.2483  -0.1279  -0.1278   0.0869   0.0872

          k = 0.2495 0.2434 0.0000 ( 26382 PWs)   bands (ev):

   -24.7258 -24.7230 -10.1115 -10.0316  -9.9861  -9.9048  -9.8521  -9.8308
    -6.0727  -5.5438  -5.2347  -5.0387  -1.5869  -1.3037  -1.0850  -0.6731
    -0.5835  -0.5483  -0.3135  -0.1630  -0.1602  -0.0773  -0.0280   0.1023

          k = 0.2495 0.2434 0.3623 ( 26387 PWs)   bands (ev):

   -24.7209 -24.7190 -10.0721 -10.0460 -10.0448  -9.9676  -9.9326  -9.9018
    -5.7469  -5.3529  -5.2628  -5.1548  -1.5914  -1.3611  -1.3169  -0.8308
    -0.6655  -0.5160  -0.4250  -0.2330  -0.1524  -0.0471   0.0808   0.1542

          k = 0.2495 0.2434-0.7247 ( 26382 PWs)   bands (ev):

   -24.7155 -24.7155 -10.2280 -10.2116  -9.9512  -9.9285  -9.9248  -9.9229
    -5.5494  -5.4237  -5.1559  -5.0276  -1.8090  -1.7476  -1.1037  -1.0418
    -0.5503  -0.5453  -0.2642  -0.2359  -0.0991  -0.0779   0.0461   0.0698

          k = 0.2495-0.4868 0.0000 ( 26386 PWs)   bands (ev):

   -24.7244 -24.7244 -10.0924 -10.0924  -9.9276  -9.9276  -9.8413  -9.8413
    -5.7620  -5.7620  -5.2145  -5.2145  -1.3577  -1.3577  -0.8598  -0.8598
    -0.6410  -0.6410  -0.2459  -0.2459  -0.0320  -0.0320  -0.0242  -0.0242

          k = 0.2495-0.4868 0.3623 ( 26398 PWs)   bands (ev):

   -24.7199 -24.7199 -10.0694 -10.0694 -10.0041 -10.0041  -9.9104  -9.9104
    -5.5500  -5.5500  -5.2215  -5.2215  -1.5062  -1.5062  -1.0363  -1.0363
    -0.5328  -0.5328  -0.2581  -0.2581  -0.1484  -0.1484   0.0601   0.0601

          k = 0.2495-0.4868-0.7247 ( 26388 PWs)   bands (ev):

   -24.7155 -24.7155 -10.2176 -10.2176  -9.9401  -9.9401  -9.9260  -9.9260
    -5.5657  -5.5657  -5.0073  -5.0073  -1.7147  -1.7147  -1.1403  -1.1403
    -0.4530  -0.4530  -0.3294  -0.3294  -0.1048  -0.1048   0.0667   0.0667

          k =-0.4990 0.0000 0.0000 ( 26394 PWs)   bands (ev):

   -24.7244 -24.7244 -10.0318 -10.0318  -9.9918  -9.9918  -9.8415  -9.8415
    -5.8423  -5.8423  -5.0845  -5.0845  -1.4537  -1.4537  -0.7534  -0.7534
    -0.4227  -0.4227  -0.4049  -0.4049  -0.3033  -0.3033   0.0404   0.0404

          k =-0.4990 0.0000 0.3623 ( 26386 PWs)   bands (ev):

   -24.7199 -24.7199 -10.0779 -10.0779  -9.9819  -9.9819  -9.9263  -9.9263
    -5.5360  -5.5360  -5.2115  -5.2115  -1.5459  -1.5459  -1.0809  -1.0809
    -0.5497  -0.5497  -0.3790  -0.3790  -0.0399  -0.0399   0.1330   0.1330

          k =-0.4990 0.0000-0.7247 ( 26364 PWs)   bands (ev):

   -24.7155 -24.7155 -10.2343 -10.2343  -9.9334  -9.9334  -9.9171  -9.9171
    -5.4024  -5.4024  -5.1588  -5.1588  -2.0176  -2.0176  -0.8234  -0.8234
    -0.5273  -0.5273  -0.3573  -0.3573   0.0354   0.0354   0.0586   0.0586

          k =-0.4990 0.2434 0.0000 ( 26394 PWs)   bands (ev):

   -24.7244 -24.7244 -10.0914 -10.0914  -9.9311  -9.9311  -9.8413  -9.8413
    -5.7995  -5.7995  -5.1499  -5.1499  -1.3696  -1.3696  -0.7613  -0.7613
    -0.5797  -0.5797  -0.4453  -0.4453  -0.1116  -0.1116   0.0213   0.0213

          k =-0.4990 0.2434 0.3623 ( 26376 PWs)   bands (ev):

   -24.7199 -24.7199 -10.0703 -10.0703 -10.0076 -10.0076  -9.9094  -9.9094
    -5.4943  -5.4943  -5.2591  -5.2591  -1.5511  -1.5511  -1.0670  -1.0670
    -0.5147  -0.5147  -0.3304  -0.3304  -0.0514  -0.0514   0.0774   0.0774

          k =-0.4990 0.2434-0.7247 ( 26368 PWs)   bands (ev):

   -24.7155 -24.7155 -10.2207 -10.2207  -9.9418  -9.9418  -9.9255  -9.9255
    -5.4359  -5.4359  -5.1210  -5.1210  -1.9343  -1.9343  -1.0014  -1.0014
    -0.4828  -0.4828  -0.3040  -0.3040  -0.0099  -0.0099   0.1085   0.1085

          k =-0.4990-0.4868 0.0000 ( 26388 PWs)   bands (ev):

   -24.7244 -24.7244 -10.1223 -10.1223  -9.8991  -9.8991  -9.8411  -9.8411
    -5.7473  -5.7473  -5.2243  -5.2243  -1.2477  -1.2477  -0.8931  -0.8931
    -0.6650  -0.6650  -0.2637  -0.2637  -0.1193  -0.1193  -0.0092  -0.0092

          k =-0.4990-0.4868 0.3623 ( 26396 PWs)   bands (ev):

   -24.7199 -24.7199 -10.0561 -10.0561 -10.0336 -10.0336  -9.8986  -9.8986
    -5.4192  -5.4192  -5.3400  -5.3400  -1.5361  -1.5361  -1.1168  -1.1168
    -0.3711  -0.3711  -0.2584  -0.2584  -0.1212  -0.1212  -0.0092  -0.0092

          k =-0.4990-0.4868-0.7247 ( 26400 PWs)   bands (ev):

   -24.7155 -24.7155 -10.2055 -10.2055  -9.9559  -9.9559  -9.9297  -9.9297
    -5.4630  -5.4630  -5.0895  -5.0895  -1.8012  -1.8012  -1.2535  -1.2535
    -0.2895  -0.2895  -0.2552  -0.2552  -0.1084  -0.1084   0.0877   0.0877

     highest occupied level (ev):     0.2175

!    total energy              =    -156.46509632 Ry
     estimated scf accuracy    <          4.4E-11 Ry

     The total energy is the sum of the following terms:
     one-electron contribution =     -28.42036930 Ry
     hartree contribution      =      27.45308817 Ry
     xc contribution           =     -48.94379207 Ry
     ewald contribution        =    -106.55402312 Ry

     convergence has been achieved in   7 iterations

     Forces acting on atoms (cartesian axes, Ry/au):

     atom    1 type  2   force =     0.00000000    0.00000000    0.00000326
     atom    2 type  2   force =     0.00000000    0.00000000   -0.00000326
     atom    3 type  1   force =     0.00063598    0.00147935   -0.00000783
     atom    4 type  1   force =    -0.00063598   -0.00147935   -0.00000783
     atom    5 type  1   force =     0.00063598   -0.00147935    0.00000783
     atom    6 type  1   force =    -0.00063598    0.00147935    0.00000783
     atom    7 type  3   force =     0.00059462    0.00079603   -0.00001122
     atom    8 type  3   force =    -0.00059462   -0.00079603   -0.00001122
     atom    9 type  3   force =     0.00059462   -0.00079603    0.00001122
     atom   10 type  3   force =    -0.00059462    0.00079603    0.00001122
     atom   11 type  3   force =     0.00008672    0.00191448    0.00000034
     atom   12 type  3   force =    -0.00008672   -0.00191448    0.00000034
     atom   13 type  3   force =     0.00008672   -0.00191448   -0.00000034
     atom   14 type  3   force =    -0.00008672    0.00191448   -0.00000034
     atom   15 type  3   force =     0.00084616    0.00076126   -0.00061347
     atom   16 type  3   force =    -0.00084616   -0.00076126   -0.00061347
     atom   17 type  3   force =     0.00084616   -0.00076126    0.00061347
     atom   18 type  3   force =    -0.00084616    0.00076126    0.00061347
     atom   19 type  3   force =    -0.00081916   -0.00076854    0.00060418
     atom   20 type  3   force =     0.00081916    0.00076854    0.00060418
     atom   21 type  3   force =    -0.00081916    0.00076854   -0.00060418
     atom   22 type  3   force =     0.00081916   -0.00076854   -0.00060418

     Total force =     0.006497     Total SCF correction =     0.000003


     Computing stress (Cartesian axis) and pressure

          total   stress  (Ry/bohr**3)                   (kbar)     P=      -19.45
  -0.00012195   0.00000000   0.00000000          -17.94        0.00        0.00
   0.00000000  -0.00012430   0.00000000            0.00      -18.28        0.00
   0.00000000   0.00000000  -0.00015038            0.00        0.00      -22.12

     Volume is kept fixed: isostatic pressure set to zero
     Energy error            =      2.1E-04 Ry
     Gradient error          =      1.9E-03 Ry/Bohr
     Cell gradient error     =      2.7E+00 kbar

     number of scf cycles    =   4
     number of bfgs steps    =   3

     enthalpy           old  =    -156.4648861842 Ry
     enthalpy           new  =    -156.4650963226 Ry

     CASE: enthalpy          _new < enthalpy          _old

     new trust radius        =       0.0053488751 bohr
ibrav =      8
 celldm(1) =     13.03776269
 celldm(2) =      1.02501543
 celldm(3) =      0.68784318
Input lattice vectors:
     1.00238160     0.00000000     0.00000000
     0.00000000     1.02745661     0.00000000
     0.00000000     0.00000000     0.68948134
New lattice vectors in INITIAL alat:
     1.00238160     0.00000000     0.00000000
     0.00000000     1.02745661     0.00000000
     0.00000000     0.00000000     0.68948134
New lattice vectors in NEW alat (for information only):
     1.00000000     0.00000000     0.00000000
     0.00000000     1.02501543     0.00000000
     0.00000000     0.00000000     0.68784318
Discrepancy in bohr =     0.000000    0.000000    0.000000
     new conv_thr            =            2.1E-11 Ry

     new unit-cell volume =   1562.53247 a.u.^3 (   231.54342 Ang^3 )
     density =      2.39550 g/cm^3

CELL_PARAMETERS (alat= 13.00678570)
   1.002381602   0.000000000   0.000000000
   0.000000000   1.027456607   0.000000000
   0.000000000   0.000000000   0.689481344

ATOMIC_POSITIONS (crystal)
Ba               0.5000000000        0.5000000000        0.5001031974
Ba               0.0000000000        0.0000000000        0.9998968026
B                0.6105535857        0.2402732972        0.0000585531
B                0.3894464143        0.7597267028        0.0000585531
B                0.1105535857        0.2597267028        0.4999414469
B                0.8894464143        0.7402732972        0.4999414469
H                0.4393391595        0.2910833753        0.0002195430
H                0.5606608405        0.7089166247        0.0002195430
H                0.9393391595        0.2089166247        0.4997804570
H                0.0606608405        0.7910833753        0.4997804570
H                0.7186743788        0.3799990619       -0.0000052246
H                0.2813256212        0.6200009381       -0.0000052246
H                0.2186743788        0.1200009381        0.5000052246
H                0.7813256212        0.8799990619        0.5000052246
H                0.6388368819        0.1451530052        0.7867981562
H                0.3611631181        0.8548469948        0.7867981562
H                0.1388368819        0.3548469948        0.7132018438
H                0.8611631181        0.6451530052        0.7132018438
H                0.3609672464        0.8548905831        0.2132197180
H                0.6390327536        0.1451094169        0.2132197180
H                0.8609672464        0.6451094169        0.2867802820
H                0.1390327536        0.3548905831        0.2867802820



     Writing config-only to output data dir ./pwscf.save/ :
     XML data file
     NEW-OLD atomic charge density approx. for the potential

     total cpu time spent up to now is      944.9 secs

     Self-consistent Calculation

     iteration #  1     ecut=   100.00 Ry     beta= 0.70
     Davidson diagonalization with overlap
     ethr =  1.00E-06,  avg # of iterations =  2.0

     Threshold (ethr) on eigenvalues was too large:
     Diagonalizing with lowered threshold

     Davidson diagonalization with overlap
     ethr =  1.42E-08,  avg # of iterations =  3.0

     total cpu time spent up to now is      980.5 secs

     total energy              =    -156.46516778 Ry
     estimated scf accuracy    <       0.00000934 Ry

     iteration #  2     ecut=   100.00 Ry     beta= 0.70
     Davidson diagonalization with overlap
     ethr =  1.95E-08,  avg # of iterations =  2.0

     total cpu time spent up to now is      997.6 secs

     total energy              =    -156.46516979 Ry
     estimated scf accuracy    <       0.00000087 Ry

     iteration #  3     ecut=   100.00 Ry     beta= 0.70
     Davidson diagonalization with overlap
     ethr =  1.82E-09,  avg # of iterations =  2.0

     total cpu time spent up to now is     1014.7 secs

     total energy              =    -156.46516993 Ry
     estimated scf accuracy    <       0.00000003 Ry

     iteration #  4     ecut=   100.00 Ry     beta= 0.70
     Davidson diagonalization with overlap
     ethr =  5.62E-11,  avg # of iterations =  4.2

     total cpu time spent up to now is     1034.9 secs

     total energy              =    -156.46516994 Ry
     estimated scf accuracy    <          3.9E-09 Ry

     iteration #  5     ecut=   100.00 Ry     beta= 0.70
     Davidson diagonalization with overlap
     ethr =  8.10E-12,  avg # of iterations =  4.3

     total cpu time spent up to now is     1056.4 secs

     total energy              =    -156.46516994 Ry
     estimated scf accuracy    <          1.0E-10 Ry

     iteration #  6     ecut=   100.00 Ry     beta= 0.70
     Davidson diagonalization with overlap
     ethr =  2.12E-13,  avg # of iterations =  5.7

     total cpu time spent up to now is     1083.3 secs

     End of self-consistent calculation

          k = 0.0000 0.0000 0.0000 ( 26431 PWs)   bands (ev):

   -24.7266 -24.7211 -10.1214 -10.0612  -9.9258  -9.9000  -9.8624  -9.8200
    -6.3499  -5.5323  -5.0383  -4.8790  -1.9971  -1.1857  -1.1806  -0.8429
    -0.4695  -0.4619  -0.4397  -0.3026  -0.1486   0.1595   0.1862   0.2109

          k = 0.0000 0.0000 0.3626 ( 26407 PWs)   bands (ev):

   -24.7213 -24.7174 -10.0519 -10.0474 -10.0278 -10.0125  -9.9132  -9.8997
    -5.9491  -5.3374  -5.1597  -5.0526  -1.6645  -1.4421  -0.9879  -0.9758
    -0.8512  -0.7532  -0.4425  -0.1988  -0.0009   0.0017   0.0815   0.2025

          k = 0.0000 0.0000-0.7252 ( 26412 PWs)   bands (ev):

   -24.7149 -24.7149 -10.2119 -10.2118  -9.9464  -9.9464  -9.9244  -9.9244
    -5.3539  -5.3534  -5.2566  -5.2562  -1.4244  -1.4239  -1.4095  -1.4082
    -0.5107  -0.5100  -0.4732  -0.4716   0.0237   0.0237   0.0462   0.0464

          k = 0.0000 0.2433 0.0000 ( 26414 PWs)   bands (ev):

   -24.7258 -24.7219 -10.0998 -10.0412  -9.9585  -9.9234  -9.8561  -9.8261
    -6.1895  -5.4664  -5.2561  -4.9800  -1.7017  -1.3449  -1.2525  -0.5679
    -0.5520  -0.5508  -0.2800  -0.1668  -0.1214  -0.0782   0.0848   0.1611

          k = 0.0000 0.2433 0.3626 ( 26382 PWs)   bands (ev):

   -24.7207 -24.7180 -10.0795 -10.0492 -10.0010  -9.9948  -9.9179  -9.9135
    -5.8565  -5.3925  -5.2002  -5.0899  -1.4968  -1.4639  -1.2534  -0.7684
    -0.7414  -0.5808  -0.5491  -0.1562  -0.0688  -0.0545   0.0627   0.1083

          k = 0.0000 0.2433-0.7252 ( 26386 PWs)   bands (ev):

[...]
        18        H      tau(  18) = (   0.8557090   0.6863026   0.4830561  )
        19        H      tau(  19) = (   0.3398609   0.8545094   0.1480510  )
        20        H      tau(  20) = (   0.6918441   0.1726995   0.1480510  )
        21        H      tau(  21) = (   0.8557134   0.6863040   0.1869722  )
        22        H      tau(  22) = (   0.1759916   0.3409049   0.1869722  )

     number of k points=    27
                       cart. coord. in units 2pi/alat
        k(    1) = (   0.0000000   0.0000000   0.0000000), wk =   0.0312500
        k(    2) = (   0.0000000   0.0000000   0.3731086), wk =   0.0625000
        k(    3) = (   0.0000000   0.0000000  -0.7462171), wk =   0.0312500
        k(    4) = (   0.0000000   0.2433780   0.0000000), wk =   0.0625000
        k(    5) = (   0.0000000   0.2433780   0.3731086), wk =   0.1250000
        k(    6) = (   0.0000000   0.2433780  -0.7462171), wk =   0.0625000
        k(    7) = (   0.0000000  -0.4867559   0.0000000), wk =   0.0312500
        k(    8) = (   0.0000000  -0.4867559   0.3731086), wk =   0.0625000
        k(    9) = (   0.0000000  -0.4867559  -0.7462171), wk =   0.0312500
        k(   10) = (   0.2423173   0.0000000   0.0000000), wk =   0.0625000
        k(   11) = (   0.2423173   0.0000000   0.3731086), wk =   0.1250000
        k(   12) = (   0.2423173   0.0000000  -0.7462171), wk =   0.0625000
        k(   13) = (   0.2423173   0.2433780   0.0000000), wk =   0.1250000
        k(   14) = (   0.2423173   0.2433780   0.3731086), wk =   0.2500000
        k(   15) = (   0.2423173   0.2433780  -0.7462171), wk =   0.1250000
        k(   16) = (   0.2423173  -0.4867559   0.0000000), wk =   0.0625000
        k(   17) = (   0.2423173  -0.4867559   0.3731086), wk =   0.1250000
        k(   18) = (   0.2423173  -0.4867559  -0.7462171), wk =   0.0625000
        k(   19) = (  -0.4846347   0.0000000   0.0000000), wk =   0.0312500
        k(   20) = (  -0.4846347   0.0000000   0.3731086), wk =   0.0625000
        k(   21) = (  -0.4846347   0.0000000  -0.7462171), wk =   0.0312500
        k(   22) = (  -0.4846347   0.2433780   0.0000000), wk =   0.0625000
        k(   23) = (  -0.4846347   0.2433780   0.3731086), wk =   0.1250000
        k(   24) = (  -0.4846347   0.2433780  -0.7462171), wk =   0.0625000
        k(   25) = (  -0.4846347  -0.4867559   0.0000000), wk =   0.0312500
        k(   26) = (  -0.4846347  -0.4867559   0.3731086), wk =   0.0625000
        k(   27) = (  -0.4846347  -0.4867559  -0.7462171), wk =   0.0312500

     Dense  grid:   596887 G-vectors     FFT dimensions: ( 128, 128,  80)

     Smooth grid:   211147 G-vectors     FFT dimensions: (  90,  90,  60)

     Estimated max dynamical RAM per process >      97.05 MB

     Estimated total dynamical RAM >       2.27 GB

     Initial potential from superposition of free atoms

     starting charge      47.9682, renormalised to      48.0000
     Starting wfcs are   42 randomized atomic wfcs

     total cpu time spent up to now is    11670.3 secs

     Self-consistent Calculation

     iteration #  1     ecut=   100.00 Ry     beta= 0.70
     Davidson diagonalization with overlap
     ethr =  1.00E-06,  avg # of iterations = 11.1

     total cpu time spent up to now is    11721.8 secs

     total energy              =    -155.82197065 Ry
     estimated scf accuracy    <       2.30509449 Ry

     iteration #  2     ecut=   100.00 Ry     beta= 0.70
     Davidson diagonalization with overlap
     ethr =  4.80E-03,  avg # of iterations =  2.0

     total cpu time spent up to now is    11738.4 secs

     total energy              =    -156.39186622 Ry
     estimated scf accuracy    <       0.47718799 Ry

     iteration #  3     ecut=   100.00 Ry     beta= 0.70
     Davidson diagonalization with overlap
     ethr =  9.94E-04,  avg # of iterations =  2.0

     total cpu time spent up to now is    11754.9 secs

     total energy              =    -156.46729087 Ry
     estimated scf accuracy    <       0.00571911 Ry

     iteration #  4     ecut=   100.00 Ry     beta= 0.70
     Davidson diagonalization with overlap
     ethr =  1.19E-05,  avg # of iterations =  3.4

     total cpu time spent up to now is    11775.3 secs

     total energy              =    -156.46946270 Ry
     estimated scf accuracy    <       0.00232169 Ry

     iteration #  5     ecut=   100.00 Ry     beta= 0.70
     Davidson diagonalization with overlap
     ethr =  4.84E-06,  avg # of iterations =  3.1

     total cpu time spent up to now is    11792.4 secs

     total energy              =    -156.47011703 Ry
     estimated scf accuracy    <       0.00005677 Ry

     iteration #  6     ecut=   100.00 Ry     beta= 0.70
     Davidson diagonalization with overlap
     ethr =  1.18E-07,  avg # of iterations =  6.0

     total cpu time spent up to now is    11819.3 secs

     total energy              =    -156.47021718 Ry
     estimated scf accuracy    <       0.00001948 Ry

     iteration #  7     ecut=   100.00 Ry     beta= 0.70
     Davidson diagonalization with overlap
     ethr =  4.06E-08,  avg # of iterations =  2.4

     total cpu time spent up to now is    11836.3 secs

     total energy              =    -156.47022172 Ry
     estimated scf accuracy    <       0.00000010 Ry

     iteration #  8     ecut=   100.00 Ry     beta= 0.70
     Davidson diagonalization with overlap
     ethr =  2.02E-10,  avg # of iterations =  7.4

     total cpu time spent up to now is    11869.8 secs

     total energy              =    -156.47022217 Ry
     estimated scf accuracy    <       0.00000003 Ry

     iteration #  9     ecut=   100.00 Ry     beta= 0.70
     Davidson diagonalization with overlap
     ethr =  5.21E-11,  avg # of iterations =  3.1

     total cpu time spent up to now is    11886.2 secs

     total energy              =    -156.47022217 Ry
     estimated scf accuracy    <          8.9E-09 Ry

     iteration # 10     ecut=   100.00 Ry     beta= 0.70
     Davidson diagonalization with overlap
     ethr =  1.85E-11,  avg # of iterations =  2.3

     total cpu time spent up to now is    11903.0 secs

     total energy              =    -156.47022217 Ry
     estimated scf accuracy    <          2.2E-10 Ry

     iteration # 11     ecut=   100.00 Ry     beta= 0.70
     Davidson diagonalization with overlap
     ethr =  4.54E-13,  avg # of iterations =  7.3

     total cpu time spent up to now is    11936.0 secs

     total energy              =    -156.47022218 Ry
     estimated scf accuracy    <          1.6E-10 Ry

     iteration # 12     ecut=   100.00 Ry     beta= 0.70
     Davidson diagonalization with overlap
     ethr =  3.37E-13,  avg # of iterations =  2.0

     total cpu time spent up to now is    11952.5 secs

     total energy              =    -156.47022218 Ry
     estimated scf accuracy    <          2.5E-12 Ry

     iteration # 13     ecut=   100.00 Ry     beta= 0.70
     Davidson diagonalization with overlap
     ethr =  1.00E-13,  avg # of iterations =  1.7

     total cpu time spent up to now is    11966.0 secs

     End of self-consistent calculation

          k = 0.0000 0.0000 0.0000 ( 26367 PWs)   bands (ev):

   -24.5666 -24.5610 -10.0549 -10.0090  -9.8214  -9.7896  -9.7319  -9.6848
    -6.4507  -5.6165  -5.0744  -5.0059  -2.1775  -1.2320  -1.1801  -0.8784
    -0.8199  -0.6446  -0.5780  -0.4154  -0.1605   0.0766   0.1291   0.1379

          k = 0.0000 0.0000 0.3731 ( 26420 PWs)   bands (ev):

   -24.5590 -24.5549  -9.9911  -9.9731  -9.9661  -9.9342  -9.8027  -9.7822
    -5.9564  -5.3274  -5.2498  -5.2040  -1.7658  -1.6478  -1.3973  -0.9818
    -0.8669  -0.8154  -0.4886  -0.2608  -0.1065  -0.0644  -0.0538   0.0586

          k = 0.0000 0.0000-0.7462 ( 26352 PWs)   bands (ev):

   -24.5501 -24.5501 -10.2154 -10.2154  -9.8289  -9.8289  -9.8141  -9.8141
    -5.4213  -5.4213  -5.2677  -5.2677  -1.7381  -1.7379  -1.5283  -1.5282
    -0.5215  -0.5214  -0.4915  -0.4913  -0.1502  -0.1501  -0.0343  -0.0341

          k = 0.0000 0.2434 0.0000 ( 26375 PWs)   bands (ev):

   -24.5658 -24.5618 -10.0312  -9.9859  -9.8554  -9.8190  -9.7250  -9.6916
    -6.2942  -5.6139  -5.2378  -5.0800  -1.9291  -1.4252  -1.2426  -0.6551
    -0.6330  -0.6180  -0.5599  -0.3528  -0.1999  -0.1818   0.0414   0.0651

          k = 0.0000 0.2434 0.3731 ( 26410 PWs)   bands (ev):

   -24.5584 -24.5555 -10.0161  -9.9915  -9.9214  -9.9145  -9.8101  -9.7993
    -5.8663  -5.4035  -5.2769  -5.2242  -1.6664  -1.6513  -1.4752  -0.8774
    -0.8295  -0.6505  -0.5911  -0.2574  -0.1624  -0.0847  -0.0495  -0.0366

          k = 0.0000 0.2434-0.7462 ( 26392 PWs)   bands (ev):

   -24.5501 -24.5501 -10.2235 -10.2235  -9.8180  -9.8180  -9.8134  -9.8134
    -5.6009  -5.6009  -5.0787  -5.0787  -1.8780  -1.8780  -1.3559  -1.3559
    -0.4953  -0.4952  -0.4257  -0.4257  -0.1882  -0.1881  -0.1145  -0.1144

          k = 0.0000-0.4868 0.0000 ( 26382 PWs)   bands (ev):

   -24.5638 -24.5638  -9.9763  -9.9763  -9.8776  -9.8776  -9.7082  -9.7082
    -5.9082  -5.9082  -5.2392  -5.2392  -1.6291  -1.6291  -0.8807  -0.8807
    -0.6564  -0.6564  -0.3228  -0.3228  -0.2520  -0.2520  -0.0804  -0.0804

          k = 0.0000-0.4868 0.3731 ( 26398 PWs)   bands (ev):

   -24.5569 -24.5569 -10.0166 -10.0166  -9.8869  -9.8869  -9.8246  -9.8246
    -5.6404  -5.6404  -5.2614  -5.2614  -1.6669  -1.6669  -1.1830  -1.1830
    -0.6395  -0.6395  -0.3440  -0.3440  -0.2535  -0.2535  -0.0498  -0.0498

          k = 0.0000-0.4868-0.7462 ( 26404 PWs)   bands (ev):

   -24.5500 -24.5500 -10.2312 -10.2312  -9.8148  -9.8148  -9.8054  -9.8054
    -5.6972  -5.6972  -4.9729  -4.9729  -1.9725  -1.9725  -1.1809  -1.1809
    -0.4764  -0.4764  -0.4052  -0.4052  -0.3533  -0.3533  -0.0605  -0.0605

          k = 0.2423 0.0000 0.0000 ( 26407 PWs)   bands (ev):

   -24.5658 -24.5618 -10.0261  -9.9892  -9.8518  -9.8259  -9.7250  -9.6916
    -6.3032  -5.6723  -5.1132  -5.1076  -1.9833  -1.2134  -1.1276  -0.9857
    -0.6011  -0.5688  -0.5500  -0.4227  -0.2285  -0.2027   0.0106   0.0684

          k = 0.2423 0.0000 0.3731 ( 26391 PWs)   bands (ev):

   -24.5584 -24.5555 -10.0120  -9.9940  -9.9402  -9.8995  -9.8186  -9.7915
    -5.8493  -5.3392  -5.3001  -5.2667  -1.7394  -1.5682  -1.5085  -0.8946
    -0.8235  -0.6870  -0.5319  -0.3225  -0.2139  -0.0735  -0.0136   0.0151

          k = 0.2423 0.0000-0.7462 ( 26402 PWs)   bands (ev):

   -24.5501 -24.5501 -10.2253 -10.2253  -9.8239  -9.8239  -9.8079  -9.8079
    -5.5224  -5.5224  -5.1503  -5.1502  -2.0233  -2.0233  -1.2314  -1.2312
    -0.4879  -0.4877  -0.4145  -0.4144  -0.2257  -0.2256  -0.0521  -0.0520

          k = 0.2423 0.2434 0.0000 ( 26380 PWs)   bands (ev):

   -24.5652 -24.5624 -10.0471  -9.9686  -9.8847  -9.7976  -9.7200  -9.6964
    -6.1991  -5.7071  -5.2394  -5.0975  -1.8017  -1.4097  -1.1543  -0.7494
    -0.6741  -0.6153  -0.4383  -0.3359  -0.3316  -0.1947  -0.0883   0.0552

          k = 0.2423 0.2434 0.3731 ( 26377 PWs)   bands (ev):

   -24.5579 -24.5559 -10.0111  -9.9892  -9.9606  -9.8861  -9.8243  -9.7869
    -5.7773  -5.4054  -5.3280  -5.2624  -1.7220  -1.5954  -1.4707  -0.9659
    -0.7327  -0.6356  -0.5014  -0.2787  -0.2562  -0.1253  -0.0346   0.0229

          k = 0.2423 0.2434-0.7462 ( 26398 PWs)   bands (ev):

   -24.5500 -24.5500 -10.2302 -10.2166  -9.8308  -9.8197  -9.8130  -9.8045
    -5.6439  -5.4837  -5.1870  -5.0197  -2.0688  -1.9085  -1.4106  -1.1971
    -0.5501  -0.4918  -0.3297  -0.2834  -0.2473  -0.1916  -0.1151  -0.0255

          k = 0.2423-0.4868 0.0000 ( 26384 PWs)   bands (ev):

   -24.5638 -24.5638 -10.0252 -10.0252  -9.8262  -9.8262  -9.7081  -9.7081
    -5.9365  -5.9365  -5.2071  -5.2071  -1.5657  -1.5657  -0.9352  -0.9352
    -0.6903  -0.6903  -0.3580  -0.3580  -0.2150  -0.2150  -0.0726  -0.0726

          k = 0.2423-0.4868 0.3731 ( 26398 PWs)   bands (ev):

   -24.5569 -24.5569 -10.0060 -10.0060  -9.9249  -9.9249  -9.7994  -9.7994
    -5.5988  -5.5988  -5.2965  -5.2965  -1.6843  -1.6843  -1.2210  -1.2210
    -0.6328  -0.6328  -0.3609  -0.3609  -0.1508  -0.1508  -0.0651  -0.0651

          k = 0.2423-0.4868-0.7462 ( 26408 PWs)   bands (ev):

   -24.5500 -24.5500 -10.2218 -10.2218  -9.8195  -9.8195  -9.8164  -9.8164
    -5.6221  -5.6221  -5.0395  -5.0395  -1.9741  -1.9741  -1.3602  -1.3602
    -0.4732  -0.4732  -0.3254  -0.3254  -0.1930  -0.1930  -0.0592  -0.0592

          k =-0.4846 0.0000 0.0000 ( 26386 PWs)   bands (ev):

   -24.5638 -24.5638  -9.9685  -9.9685  -9.8869  -9.8869  -9.7083  -9.7083
    -5.9543  -5.9543  -5.1655  -5.1655  -1.5971  -1.5971  -0.7793  -0.7793
    -0.5541  -0.5541  -0.5387  -0.5387  -0.3676  -0.3676  -0.0978  -0.0978

          k =-0.4846 0.0000 0.3731 ( 26366 PWs)   bands (ev):

   -24.5569 -24.5569 -10.0165 -10.0165  -9.8956  -9.8956  -9.8189  -9.8189
    -5.5882  -5.5882  -5.2983  -5.2983  -1.6812  -1.6812  -1.2071  -1.2071
    -0.5989  -0.5989  -0.4825  -0.4825  -0.1664  -0.1664  -0.0297  -0.0297

          k =-0.4846 0.0000-0.7462 ( 26448 PWs)   bands (ev):

   -24.5500 -24.5500 -10.2346 -10.2346  -9.8215  -9.8215  -9.7995  -9.7995
    -5.5814  -5.5814  -5.0740  -5.0740  -2.1793  -2.1793  -1.0152  -1.0152
    -0.4999  -0.4999  -0.4653  -0.4653  -0.1477  -0.1477  -0.0951  -0.0951

          k =-0.4846 0.2434 0.0000 ( 26358 PWs)   bands (ev):

   -24.5638 -24.5638 -10.0236 -10.0236  -9.8286  -9.8286  -9.7081  -9.7081
    -5.9585  -5.9585  -5.1712  -5.1712  -1.5512  -1.5512  -0.8757  -0.8757
    -0.6567  -0.6567  -0.4960  -0.4960  -0.2552  -0.2552  -0.0579  -0.0579

          k =-0.4846 0.2434 0.3731 ( 26370 PWs)   bands (ev):

   -24.5569 -24.5569 -10.0057 -10.0057  -9.9280  -9.9280  -9.7981  -9.7981
    -5.5682  -5.5682  -5.3194  -5.3194  -1.6891  -1.6891  -1.2465  -1.2465
    -0.5725  -0.5725  -0.4397  -0.4397  -0.1311  -0.1311  -0.0516  -0.0516

          k =-0.4846 0.2434-0.7462 ( 26404 PWs)   bands (ev):

   -24.5500 -24.5500 -10.2236 -10.2236  -9.8253  -9.8253  -9.8109  -9.8109
    -5.5539  -5.5539  -5.1003  -5.1003  -2.1017  -2.1017  -1.2465  -1.2465
    -0.4569  -0.4569  -0.4020  -0.4020  -0.1500  -0.1500  -0.0033  -0.0033

          k =-0.4846-0.4868 0.0000 ( 26344 PWs)   bands (ev):

   -24.5638 -24.5638 -10.0564 -10.0564  -9.7926  -9.7926  -9.7080  -9.7080
    -5.9629  -5.9629  -5.1765  -5.1765  -1.4897  -1.4897  -1.0040  -1.0040
    -0.7196  -0.7196  -0.3824  -0.3824  -0.1825  -0.1825  -0.0743  -0.0743

          k =-0.4846-0.4868 0.3731 ( 26356 PWs)   bands (ev):

   -24.5569 -24.5569  -9.9794  -9.9794  -9.9690  -9.9690  -9.7841  -9.7841
    -5.5445  -5.5445  -5.3442  -5.3442  -1.6912  -1.6912  -1.2951  -1.2951
    -0.5687  -0.5687  -0.2841  -0.2841  -0.2226  -0.2226  -0.0332  -0.0332

          k =-0.4846-0.4868-0.7462 ( 26464 PWs)   bands (ev):

   -24.5500 -24.5500 -10.2118 -10.2118  -9.8334  -9.8334  -9.8188  -9.8188
    -5.5232  -5.5232  -5.1297  -5.1297  -1.9709  -1.9709  -1.5068  -1.5068
    -0.4306  -0.4306  -0.2426  -0.2426  -0.1912  -0.1912   0.0210   0.0210

     highest occupied level (ev):     0.1379

!    total energy              =    -156.47022218 Ry
     estimated scf accuracy    <          1.9E-13 Ry

     The total energy is the sum of the following terms:
     one-electron contribution =     -32.88562361 Ry
     hartree contribution      =      29.70251817 Ry
     xc contribution           =     -49.05968699 Ry
     ewald contribution        =    -104.22742974 Ry

     convergence has been achieved in  13 iterations

     Forces acting on atoms (cartesian axes, Ry/au):

     atom    1 type  2   force =     0.00000000    0.00000000    0.00000199
     atom    2 type  2   force =     0.00000000    0.00000000   -0.00000199
     atom    3 type  1   force =     0.00000026    0.00000443   -0.00000429
     atom    4 type  1   force =    -0.00000026   -0.00000443   -0.00000429
     atom    5 type  1   force =     0.00000026   -0.00000443    0.00000429
     atom    6 type  1   force =    -0.00000026    0.00000443    0.00000429
     atom    7 type  3   force =    -0.00000271   -0.00000092    0.00000823
     atom    8 type  3   force =     0.00000271    0.00000092    0.00000823
     atom    9 type  3   force =    -0.00000271    0.00000092   -0.00000823
     atom   10 type  3   force =     0.00000271   -0.00000092   -0.00000823
     atom   11 type  3   force =     0.00000176    0.00000432   -0.00000162
     atom   12 type  3   force =    -0.00000176   -0.00000432   -0.00000162
     atom   13 type  3   force =     0.00000176   -0.00000432    0.00000162
     atom   14 type  3   force =    -0.00000176    0.00000432    0.00000162
     atom   15 type  3   force =     0.00000400   -0.00000565   -0.00000602
     atom   16 type  3   force =    -0.00000400    0.00000565   -0.00000602
     atom   17 type  3   force =     0.00000400    0.00000565    0.00000602
     atom   18 type  3   force =    -0.00000400   -0.00000565    0.00000602
     atom   19 type  3   force =     0.00000531    0.00000197    0.00000052
     atom   20 type  3   force =    -0.00000531   -0.00000197    0.00000052
     atom   21 type  3   force =     0.00000531   -0.00000197   -0.00000052
     atom   22 type  3   force =    -0.00000531    0.00000197   -0.00000052

     Total force =     0.000032     Total SCF correction =     0.000000


     Computing stress (Cartesian axis) and pressure

          total   stress  (Ry/bohr**3)                   (kbar)     P=       -7.02
  -0.00004768   0.00000000   0.00000000           -7.01        0.00        0.00
   0.00000000  -0.00004769   0.00000000            0.00       -7.02        0.00
   0.00000000   0.00000000  -0.00004778            0.00        0.00       -7.03


     Writing all to output data dir ./pwscf.save/ :
     XML data file, charge density, pseudopotentials, collected wavefunctions

     init_run     :     20.62s CPU     22.88s WALL (       2 calls)
     electrons    :   9801.29s CPU   9872.84s WALL (      63 calls)
     update_pot   :     15.85s CPU     17.45s WALL (      61 calls)
     forces       :    226.68s CPU    228.96s WALL (      63 calls)
     stress       :   1833.42s CPU   1837.75s WALL (      63 calls)

     Called by init_run:
     wfcinit      :     16.33s CPU     16.43s WALL (       2 calls)
     potinit      :      0.75s CPU      1.29s WALL (       2 calls)
     hinit0       :      1.66s CPU      3.20s WALL (       2 calls)

     Called by electrons:
     c_bands      :   8634.18s CPU   8686.84s WALL (     493 calls)
     sum_band     :    998.85s CPU   1009.62s WALL (     493 calls)
     v_of_rho     :     72.97s CPU     76.23s WALL (     516 calls)
     newd         :     97.80s CPU     99.50s WALL (     516 calls)
     mix_rho      :      8.05s CPU      8.69s WALL (     493 calls)

     Called by c_bands:
     init_us_2    :    195.82s CPU    198.26s WALL (   30078 calls)
     cegterg      :   7730.68s CPU   7780.41s WALL (   13311 calls)

     Called by *egterg:
     cdiaghg      :    101.06s CPU    101.72s WALL (   56814 calls)
     h_psi        :   5443.63s CPU   5484.23s WALL (   59595 calls)
     s_psi        :   1016.22s CPU   1019.77s WALL (   59595 calls)
     g_psi        :     17.09s CPU     17.17s WALL (   46230 calls)

     Called by h_psi:
     h_psi:calbec :    906.76s CPU    910.97s WALL (   59595 calls)
     vloc_psi     :   3499.53s CPU   3532.63s WALL (   59595 calls)
     add_vuspsi   :   1021.44s CPU   1025.04s WALL (   59595 calls)

     General routines
     calbec       :   1643.76s CPU   1650.11s WALL (   81411 calls)
     fft          :     56.57s CPU     63.34s WALL (    8258 calls)
     ffts         :      2.85s CPU      3.58s WALL (    1009 calls)
     fftw         :   3556.34s CPU   3589.09s WALL ( 2377790 calls)
     interpolate  :      5.66s CPU      6.62s WALL (     516 calls)

     Parallel routines

     PWSCF        :      3h18m CPU      3h20m WALL


   This run was terminated on:  18: 2:28   6Aug2024            

=------------------------------------------------------------------------------=
   JOB DONE.
=------------------------------------------------------------------------------=
