
     Program PHONON v.7.3.1 starts on 12Jul2024 at 12:20:37 

     This program is part of the open-source Quantum ESPRESSO suite
     for quantum simulation of materials; please cite
         "P. Giannozzi et al., J. Phys.:Condens. Matter 21 395502 (2009);
         "P. Giannozzi et al., J. Phys.:Condens. Matter 29 465901 (2017);
         "P. Giannozzi et al., J. Chem. Phys. 152 154105 (2020);
          URL http://www.quantum-espresso.org", 
     in publications or presentations arising from this work. More details at
     http://www.quantum-espresso.org/quote

     Parallel version (MPI), running on    24 processors

     MPI processes distributed on     1 nodes
     94351 MiB available memory on the printing compute node when the environment starts

     Waiting for input...
     Reading input from standard input

     Reading xml data from directory:

     ./pwscf.save/

     R & G space division:  proc/nbgrp/npool/nimage =      24
     Subspace diagonalization in iterative solution of the eigenvalue problem:
     a serial algorithm will be used


     IMPORTANT: XC functional enforced from input :
     Exchange-correlation= PBESOL
                           (   1   4  10   8   0   0   0)
     Any further DFT definition will be discarded
     Please, verify this is what you really want


     Parallelization info
     --------------------
     sticks:   dense  smooth     PW     G-vecs:    dense   smooth      PW
     Min         416     208     56                21698     7668    1078
     Max         417     209     57                21701     7671    1081
     Sum        9993    5003   1355               520787   184049   25907

     Using Slab Decomposition

     Reading collected, re-writing distributed wavefunctions in ./


     Dynamical matrices for ( 3, 3, 3)  uniform grid of q-points
     (   8 q-points):
       N         xq(1)         xq(2)         xq(3) 
       1   0.000000000   0.000000000   0.000000000
       2   0.000000000   0.000000000   0.471524292
       3   0.000000000   0.320710573   0.000000000
       4   0.000000000   0.320710573   0.471524292
       5   0.333333333   0.000000000   0.000000000
       6   0.333333333   0.000000000   0.471524292
       7   0.333333333   0.320710573   0.000000000
       8   0.333333333   0.320710573   0.471524292

     Number and degeneracy of irreps per q-point
       N         xq(1)         xq(2)         xq(3)   N irreps
       1   0.000000000   0.000000000   0.000000000      66
     No degeneracy
       2   0.000000000   0.000000000   0.471524292      66
     No degeneracy
Eigenvectors exchange needed   30   62
       3   0.000000000   0.320710573   0.000000000      64
        1   1   1   1   1   1   1   1   1   1   1   1   1   1   1   1   1   1
   1   1   1   1   1   1   1   1   1   1   3   1   1   1   1   1   1   1
   1   1   1   1   1   1   1   1   1   1   1   1   1   1   1   1   1   1
   1   1   1   1   1   1   1   1   1   1
       4   0.000000000   0.320710573   0.471524292      66
     No degeneracy
       5   0.333333333   0.000000000   0.000000000      66
     No degeneracy
       6   0.333333333   0.000000000   0.471524292      66
     No degeneracy
       7   0.333333333   0.320710573   0.000000000      66
     No degeneracy
       8   0.333333333   0.320710573   0.471524292      66
     No degeneracy

     Saving dvscf to file. Distribute only q points, not irreducible representations.

     Calculation of q =    0.0000000   0.0000000   0.0000000

                                                                                

     bravais-lattice index     =            8
     lattice parameter (alat)  =      12.2864  a.u.
     unit-cell volume          =    1362.7566 (a.u.)^3
     number of atoms/cell      =           22
     number of atomic types    =            3
     kinetic-energy cut-off    =     100.0000  Ry
     charge density cut-off    =     800.0000  Ry
     convergence threshold     =      1.0E-14
     beta                      =       0.7000
     number of iterations used =            4
     Exchange-correlation= PBESOL
                           (   1   4  10   8   0   0   0)


     celldm(1)=   12.28644  celldm(2)=    1.03936  celldm(3)=    0.70693
     celldm(4)=    0.00000  celldm(5)=    0.00000  celldm(6)=    0.00000

     crystal axes: (cart. coord. in units of alat)
               a(1) = (  1.0000  0.0000  0.0000 )  
               a(2) = (  0.0000  1.0394  0.0000 )  
               a(3) = (  0.0000  0.0000  0.7069 )  

     reciprocal axes: (cart. coord. in units 2 pi/alat)
               b(1) = (  1.0000  0.0000  0.0000 )  
               b(2) = (  0.0000  0.9621  0.0000 )  
               b(3) = (  0.0000  0.0000  1.4146 )  


     Atoms inside the unit cell: 

     Cartesian axes

     site n.  atom      mass           positions (alat units)
        1  Ba    137.3270   tau(    1) = (    0.50000    0.51968    0.35347  )
        2  Ba    137.3270   tau(    2) = (    0.00000    0.00000    0.70693  )
        3  B      10.8110   tau(    3) = (    0.60401    0.24459   -0.00000  )
        4  B      10.8110   tau(    4) = (    0.39599    0.79477   -0.00000  )
        5  B      10.8110   tau(    5) = (    0.10401    0.27509    0.35346  )
        6  B      10.8110   tau(    6) = (    0.89599    0.76427    0.35346  )
        7  H       1.0079   tau(    7) = (    0.42489    0.30508   -0.00001  )
        8  H       1.0079   tau(    8) = (    0.57511    0.73428   -0.00001  )
        9  H       1.0079   tau(    9) = (    0.92489    0.21460    0.35347  )
       10  H       1.0079   tau(   10) = (    0.07511    0.82476    0.35347  )
       11  H       1.0079   tau(   11) = (    0.72294    0.39349    0.00001  )
       12  H       1.0079   tau(   12) = (    0.27706    0.64587    0.00001  )
       13  H       1.0079   tau(   13) = (    0.22294    0.12619    0.35345  )
       14  H       1.0079   tau(   14) = (    0.77706    0.91317    0.35345  )
       15  H       1.0079   tau(   15) = (    0.63139    0.14179    0.55095  )
       16  H       1.0079   tau(   16) = (    0.36861    0.89757    0.55095  )
       17  H       1.0079   tau(   17) = (    0.13139    0.37789    0.50944  )
       18  H       1.0079   tau(   18) = (    0.86861    0.66146    0.50944  )
       19  H       1.0079   tau(   19) = (    0.36863    0.89757    0.15598  )
       20  H       1.0079   tau(   20) = (    0.63137    0.14179    0.15598  )
       21  H       1.0079   tau(   21) = (    0.86863    0.66147    0.19748  )
       22  H       1.0079   tau(   22) = (    0.13137    0.37789    0.19748  )

     Computing dynamical matrix for 
                    q = (   0.0000000   0.0000000   0.0000000 )

      5 Sym.Ops. (with q -> -q+G )


     G cutoff = 3059.0203  (  21700 G-vectors)     FFT grid: (120,120, 80)
     G cutoff = 1529.5101  (   7671 G-vectors)  smooth grid: ( 80, 90, 60)
     number of k points=    27

     PseudoPot. # 1 for B  read from file:
     /home/mehlhorn/pseudos/b_pbesol_v1.4.uspp.F.UPF
     MD5 check sum: 369b69bef2c3aeed4453bd8b804fd6a8
     Pseudo is Ultrasoft + core correction, Zval =  3.0
     Generated by new atomic code, or converted to UPF format
     Using radial grid of  781 points,  4 beta functions with: 
                l(1) =   0
                l(2) =   0
                l(3) =   1
                l(4) =   1
     Q(r) pseudized with  8 coefficients,  rinner =    1.100   1.100   1.100


     PseudoPot. # 2 for Ba read from file:
     /home/mehlhorn/pseudos/Ba.nc.z_10.oncvpsp4.dojo.v4-sp.upf
     MD5 check sum: c10ed334bb677c0554edec7181ce9143
     Pseudo is Norm-conserving + core correction, Zval = 10.0
     Generated using ONCVPSP code by D. R. Hamann
     Using radial grid of 1938 points,  8 beta functions with: 
                l(1) =   0
                l(2) =   0
                l(3) =   1
                l(4) =   1
                l(5) =   2
                l(6) =   2
                l(7) =   3
                l(8) =   3

     PseudoPot. # 3 for H  read from file:
     /home/mehlhorn/pseudos/H_ONCV_PBEsol-1.0.upf
     MD5 check sum: 398ef8f67c0a7342c05c87c5e19ea467
     Pseudo is Norm-conserving, Zval =  1.0
     Generated using ONCVPSP code by D. R. Hamann
     Using radial grid of 1180 points,  2 beta functions with: 
                l(1) =   0
                l(2) =   0

     Mode symmetry, D_2  (222)  point group:


     Electric field:
     Dielectric constant
     Born effective charges in two ways 


     Atomic displacements:
     There are   66 irreducible representations

     Representation     1      1 modes -  To be done

     Representation     2      1 modes -  To be done

     Representation     3      1 modes -  To be done

     Representation     4      1 modes -  To be done

     Representation     5      1 modes -  To be done

     Representation     6      1 modes -  To be done

     Representation     7      1 modes -  To be done

     Representation     8      1 modes -  To be done

     Representation     9      1 modes -  To be done

     Representation    10      1 modes -  To be done

     Representation    11      1 modes -  To be done

     Representation    12      1 modes -  To be done

     Representation    13      1 modes -  To be done

     Representation    14      1 modes -  To be done

     Representation    15      1 modes -  To be done

     Representation    16      1 modes -  To be done

     Representation    17      1 modes -  To be done

     Representation    18      1 modes -  To be done

     Representation    19      1 modes -  To be done

     Representation    20      1 modes -  To be done

     Representation    21      1 modes -  To be done

     Representation    22      1 modes -  To be done

     Representation    23      1 modes -  To be done

     Representation    24      1 modes -  To be done

     Representation    25      1 modes -  To be done

     Representation    26      1 modes -  To be done

     Representation    27      1 modes -  To be done

     Representation    28      1 modes -  To be done

     Representation    29      1 modes -  To be done

     Representation    30      1 modes -  To be done

     Representation    31      1 modes -  To be done

     Representation    32      1 modes -  To be done

     Representation    33      1 modes -  To be done

     Representation    34      1 modes -  To be done

     Representation    35      1 modes -  To be done

     Representation    36      1 modes -  To be done

     Representation    37      1 modes -  To be done

     Representation    38      1 modes -  To be done

     Representation    39      1 modes -  To be done

     Representation    40      1 modes -  To be done

     Representation    41      1 modes -  To be done

     Representation    42      1 modes -  To be done

     Representation    43      1 modes -  To be done

     Representation    44      1 modes -  To be done

     Representation    45      1 modes -  To be done

     Representation    46      1 modes -  To be done

     Representation    47      1 modes -  To be done

     Representation    48      1 modes -  To be done

     Representation    49      1 modes -  To be done

     Representation    50      1 modes -  To be done

     Representation    51      1 modes -  To be done

     Representation    52      1 modes -  To be done

     Representation    53      1 modes -  To be done

     Representation    54      1 modes -  To be done

     Representation    55      1 modes -  To be done

     Representation    56      1 modes -  To be done

     Representation    57      1 modes -  To be done

     Representation    58      1 modes -  To be done

     Representation    59      1 modes -  To be done

     Representation    60      1 modes -  To be done

     Representation    61      1 modes -  To be done

     Representation    62      1 modes -  To be done

     Representation    63      1 modes -  To be done

     Representation    64      1 modes -  To be done

     Representation    65      1 modes -  To be done

     Representation    66      1 modes -  To be done



     Alpha used in Ewald sum =   2.8000
     PHONON       :   3m11.15s CPU   3m15.43s WALL


     Electric Fields Calculation

      iter #   1 total cpu time :   768.7 secs   av.it.:   7.6
      thresh= 1.000E-02 alpha_mix =  0.700 |ddv_scf|^2 =  5.738E-09

      iter #   2 total cpu time :  1012.8 secs   av.it.:  16.9
      thresh= 7.575E-06 alpha_mix =  0.700 |ddv_scf|^2 =  9.330E-10

      iter #   3 total cpu time :  1252.3 secs   av.it.:  16.0
      thresh= 3.055E-06 alpha_mix =  0.700 |ddv_scf|^2 =  7.211E-11

      iter #   4 total cpu time :  1484.6 secs   av.it.:  15.7
      thresh= 8.492E-07 alpha_mix =  0.700 |ddv_scf|^2 =  9.180E-12

      iter #   5 total cpu time :  1716.0 secs   av.it.:  15.7
      thresh= 3.030E-07 alpha_mix =  0.700 |ddv_scf|^2 =  9.148E-13

      iter #   6 total cpu time :  1952.3 secs   av.it.:  15.7
      thresh= 9.565E-08 alpha_mix =  0.700 |ddv_scf|^2 =  2.370E-14

      iter #   7 total cpu time :  2193.2 secs   av.it.:  16.0
      thresh= 1.539E-08 alpha_mix =  0.700 |ddv_scf|^2 =  3.295E-15

     End of electric fields calculation

          Dielectric constant in cartesian axis 

          (       3.238201187       0.000000000       0.000000000 )
          (       0.000000000       3.302257497       0.000000000 )
          (       0.000000000       0.000000000       3.419185228 )

          Effective charges (d Force / dE) in cartesian axis without acoustic sum rule applied (asr)

           atom    1  Ba    Mean Z*:        2.67368
      Ex  (        2.52595       -0.03693        0.00000 )
      Ey  (        0.28751        2.54236        0.00000 )
      Ez  (        0.00000        0.00000        2.95273 )
           atom    2  Ba    Mean Z*:        2.67368
      Ex  (        2.52595        0.03693        0.00000 )
      Ey  (       -0.28751        2.54236        0.00000 )
      Ez  (        0.00000        0.00000        2.95273 )
           atom    3  B     Mean Z*:       -0.13679
      Ex  (       -0.15305        0.03205       -0.00002 )
      Ey  (        0.17457       -0.05367        0.00005 )
      Ez  (        0.00001        0.00003       -0.20364 )
           atom    4  B     Mean Z*:       -0.13679
      Ex  (       -0.15305        0.03205        0.00002 )
      Ey  (        0.17457       -0.05367       -0.00005 )
      Ez  (       -0.00001       -0.00003       -0.20364 )
           atom    5  B     Mean Z*:       -0.13679
      Ex  (       -0.15305       -0.03205        0.00002 )
      Ey  (       -0.17457       -0.05367        0.00005 )
      Ez  (       -0.00001        0.00003       -0.20364 )
           atom    6  B     Mean Z*:       -0.13679
      Ex  (       -0.15305       -0.03205       -0.00002 )
      Ey  (       -0.17457       -0.05367       -0.00005 )
      Ez  (        0.00001       -0.00003       -0.20364 )
           atom    7  H     Mean Z*:       -0.30710
      Ex  (       -0.42021        0.12991       -0.00000 )
      Ey  (        0.13807       -0.25606        0.00000 )
      Ez  (       -0.00002        0.00001       -0.24502 )
           atom    8  H     Mean Z*:       -0.30710
      Ex  (       -0.42021        0.12991        0.00000 )
      Ey  (        0.13807       -0.25606       -0.00000 )
      Ez  (        0.00002       -0.00001       -0.24502 )
           atom    9  H     Mean Z*:       -0.30710
      Ex  (       -0.42021       -0.12991        0.00000 )
      Ey  (       -0.13807       -0.25606        0.00000 )
      Ez  (        0.00002        0.00001       -0.24502 )
           atom   10  H     Mean Z*:       -0.30710
      Ex  (       -0.42021       -0.12991       -0.00000 )
      Ey  (       -0.13807       -0.25606       -0.00000 )
      Ez  (       -0.00002       -0.00001       -0.24502 )
           atom   11  H     Mean Z*:       -0.31857
      Ex  (       -0.28291       -0.04744        0.00001 )
      Ey  (       -0.11319       -0.42761       -0.00004 )
      Ez  (        0.00001       -0.00003       -0.24520 )
           atom   12  H     Mean Z*:       -0.31857
      Ex  (       -0.28291       -0.04744       -0.00001 )
      Ey  (       -0.11319       -0.42761        0.00004 )
      Ez  (       -0.00001        0.00003       -0.24520 )
           atom   13  H     Mean Z*:       -0.31857
      Ex  (       -0.28291        0.04744       -0.00001 )
      Ey  (        0.11319       -0.42761       -0.00004 )
      Ez  (       -0.00001       -0.00003       -0.24520 )
           atom   14  H     Mean Z*:       -0.31857
      Ex  (       -0.28291        0.04744        0.00001 )
      Ey  (        0.11319       -0.42761        0.00004 )
      Ez  (        0.00001        0.00003       -0.24520 )
           atom   15  H     Mean Z*:       -0.28701
      Ex  (       -0.20358        0.14365        0.05612 )
      Ey  (        0.09411       -0.26642       -0.08842 )
      Ez  (        0.01637       -0.10791       -0.39104 )
           atom   16  H     Mean Z*:       -0.28701
      Ex  (       -0.20358        0.14365       -0.05612 )
      Ey  (        0.09411       -0.26642        0.08842 )
      Ez  (       -0.01637        0.10791       -0.39104 )
           atom   17  H     Mean Z*:       -0.28701
      Ex  (       -0.20358       -0.14365       -0.05612 )
      Ey  (       -0.09411       -0.26642       -0.08842 )
      Ez  (       -0.01637       -0.10791       -0.39104 )
           atom   18  H     Mean Z*:       -0.28701
      Ex  (       -0.20358       -0.14365        0.05612 )
      Ey  (       -0.09411       -0.26642        0.08842 )
      Ez  (        0.01637        0.10791       -0.39104 )
           atom   19  H     Mean Z*:       -0.28702
      Ex  (       -0.20354        0.14363        0.05609 )
      Ey  (        0.09408       -0.26643       -0.08842 )
      Ez  (        0.01635       -0.10790       -0.39110 )
           atom   20  H     Mean Z*:       -0.28702
      Ex  (       -0.20354        0.14363       -0.05609 )
      Ey  (        0.09408       -0.26643        0.08842 )
      Ez  (       -0.01635        0.10790       -0.39110 )
           atom   21  H     Mean Z*:       -0.28702
      Ex  (       -0.20354       -0.14363       -0.05609 )
      Ey  (       -0.09408       -0.26643       -0.08842 )
      Ez  (       -0.01635       -0.10790       -0.39110 )
           atom   22  H     Mean Z*:       -0.28702
      Ex  (       -0.20354       -0.14363        0.05609 )
      Ey  (       -0.09408       -0.26643        0.08842 )
      Ez  (        0.01635        0.10790       -0.39110 )

          Effective charges Sum: Mean:        0.00139
             -0.00128       -0.00000       -0.00000
              0.00000        0.00399        0.00000
              0.00000        0.00000        0.00147

          Effective charges (d Force / dE) in cartesian axis with asr applied: 
           atom    1  Ba    Mean Z*:        2.67362
      E*x (        2.52601       -0.03693       -0.00000 )
      E*y (        0.28751        2.54218        0.00000 )
      E*z (        0.00000       -0.00000        2.95266 )
           atom    2  Ba    Mean Z*:        2.67362
      E*x (        2.52601        0.03693       -0.00000 )
      E*y (       -0.28751        2.54218        0.00000 )
      E*z (        0.00000       -0.00000        2.95266 )
           atom    3  B     Mean Z*:       -0.13685
      E*x (       -0.15300        0.03205       -0.00002 )
      E*y (        0.17457       -0.05385        0.00005 )
      E*z (        0.00001        0.00003       -0.20371 )
           atom    4  B     Mean Z*:       -0.13685
      E*x (       -0.15300        0.03205        0.00002 )
      E*y (        0.17457       -0.05385       -0.00005 )
      E*z (       -0.00001       -0.00003       -0.20371 )
           atom    5  B     Mean Z*:       -0.13685
      E*x (       -0.15300       -0.03205        0.00002 )
      E*y (       -0.17457       -0.05385        0.00005 )
      E*z (       -0.00001        0.00003       -0.20371 )
           atom    6  B     Mean Z*:       -0.13685
      E*x (       -0.15300       -0.03205       -0.00002 )
      E*y (       -0.17457       -0.05385       -0.00005 )
      E*z (        0.00001       -0.00003       -0.20371 )
           atom    7  H     Mean Z*:       -0.30716
      E*x (       -0.42015        0.12991       -0.00000 )
      E*y (        0.13807       -0.25624        0.00000 )
      E*z (       -0.00002        0.00001       -0.24509 )
           atom    8  H     Mean Z*:       -0.30716
      E*x (       -0.42015        0.12991        0.00000 )
      E*y (        0.13807       -0.25624       -0.00000 )
      E*z (        0.00002       -0.00001       -0.24509 )
           atom    9  H     Mean Z*:       -0.30716
      E*x (       -0.42015       -0.12991        0.00000 )
      E*y (       -0.13807       -0.25624        0.00000 )
      E*z (        0.00002        0.00001       -0.24509 )
           atom   10  H     Mean Z*:       -0.30716
      E*x (       -0.42015       -0.12991       -0.00000 )
      E*y (       -0.13807       -0.25624       -0.00000 )
      E*z (       -0.00002       -0.00001       -0.24509 )
           atom   11  H     Mean Z*:       -0.31864
      E*x (       -0.28285       -0.04744        0.00001 )
      E*y (       -0.11319       -0.42779       -0.00004 )
      E*z (        0.00001       -0.00003       -0.24527 )
           atom   12  H     Mean Z*:       -0.31864
      E*x (       -0.28285       -0.04744       -0.00001 )
      E*y (       -0.11319       -0.42779        0.00004 )
      E*z (       -0.00001        0.00003       -0.24527 )
           atom   13  H     Mean Z*:       -0.31864
      E*x (       -0.28285        0.04744       -0.00001 )
      E*y (        0.11319       -0.42779       -0.00004 )
      E*z (       -0.00001       -0.00003       -0.24527 )
           atom   14  H     Mean Z*:       -0.31864
      E*x (       -0.28285        0.04744        0.00001 )
      E*y (        0.11319       -0.42779        0.00004 )
      E*z (        0.00001        0.00003       -0.24527 )
           atom   15  H     Mean Z*:       -0.28708
      E*x (       -0.20352        0.14365        0.05612 )
      E*y (        0.09411       -0.26660       -0.08842 )
      E*z (        0.01637       -0.10791       -0.39111 )
           atom   16  H     Mean Z*:       -0.28708
      E*x (       -0.20352        0.14365       -0.05612 )
      E*y (        0.09411       -0.26660        0.08842 )
      E*z (       -0.01637        0.10791       -0.39111 )
           atom   17  H     Mean Z*:       -0.28708
      E*x (       -0.20352       -0.14365       -0.05612 )
      E*y (       -0.09411       -0.26660       -0.08842 )
      E*z (       -0.01637       -0.10791       -0.39111 )
           atom   18  H     Mean Z*:       -0.28708
      E*x (       -0.20352       -0.14365        0.05612 )
      E*y (       -0.09411       -0.26660        0.08842 )
      E*z (        0.01637        0.10791       -0.39111 )
           atom   19  H     Mean Z*:       -0.28708
      E*x (       -0.20348        0.14363        0.05609 )
      E*y (        0.09408       -0.26661       -0.08842 )
      E*z (        0.01635       -0.10790       -0.39116 )
           atom   20  H     Mean Z*:       -0.28708
      E*x (       -0.20348        0.14363       -0.05609 )
      E*y (        0.09408       -0.26661        0.08842 )
      E*z (       -0.01635        0.10790       -0.39116 )
           atom   21  H     Mean Z*:       -0.28708
      E*x (       -0.20348       -0.14363       -0.05609 )
      E*y (       -0.09408       -0.26661       -0.08842 )
      E*z (       -0.01635       -0.10790       -0.39116 )
           atom   22  H     Mean Z*:       -0.28708
      E*x (       -0.20348       -0.14363        0.05609 )
      E*y (       -0.09408       -0.26661        0.08842 )
      E*z (        0.01635        0.10790       -0.39116 )


     Representation #   1 mode #   1

     Self-consistent Calculation

      iter #   1 total cpu time :  4540.8 secs   av.it.:   3.0
      thresh= 1.000E-02 alpha_mix =  0.700 |ddv_scf|^2 =  1.926E-09

      iter #   2 total cpu time :  4620.3 secs   av.it.:  15.4
      thresh= 4.388E-06 alpha_mix =  0.700 |ddv_scf|^2 =  4.394E-10

      iter #   3 total cpu time :  4698.4 secs   av.it.:  15.0
      thresh= 2.096E-06 alpha_mix =  0.700 |ddv_scf|^2 =  2.700E-12

      iter #   4 total cpu time :  4777.7 secs   av.it.:  15.4
      thresh= 1.643E-07 alpha_mix =  0.700 |ddv_scf|^2 =  4.960E-14

      iter #   5 total cpu time :  4859.0 secs   av.it.:  15.8
      thresh= 2.227E-08 alpha_mix =  0.700 |ddv_scf|^2 =  1.911E-15

     End of self-consistent calculation

     Convergence has been achieved 


     Representation #   2 mode #   2

     Self-consistent Calculation

      iter #   1 total cpu time :  4918.2 secs   av.it.:   3.0
      thresh= 1.000E-02 alpha_mix =  0.700 |ddv_scf|^2 =  1.482E-09

      iter #   2 total cpu time :  4998.9 secs   av.it.:  15.9
      thresh= 3.850E-06 alpha_mix =  0.700 |ddv_scf|^2 =  3.804E-10

      iter #   3 total cpu time :  5077.8 secs   av.it.:  15.2
      thresh= 1.950E-06 alpha_mix =  0.700 |ddv_scf|^2 =  3.137E-12

      iter #   4 total cpu time :  5158.3 secs   av.it.:  15.8
      thresh= 1.771E-07 alpha_mix =  0.700 |ddv_scf|^2 =  1.208E-13

      iter #   5 total cpu time :  5238.3 secs   av.it.:  15.7
      thresh= 3.475E-08 alpha_mix =  0.700 |ddv_scf|^2 =  5.289E-15

     End of self-consistent calculation

     Convergence has been achieved 


     Representation #   3 mode #   3

     Self-consistent Calculation

      iter #   1 total cpu time :  5296.7 secs   av.it.:   3.0
      thresh= 1.000E-02 alpha_mix =  0.700 |ddv_scf|^2 =  6.105E-10

      iter #   2 total cpu time :  5377.4 secs   av.it.:  15.9
      thresh= 2.471E-06 alpha_mix =  0.700 |ddv_scf|^2 =  5.242E-11

      iter #   3 total cpu time :  5457.9 secs   av.it.:  15.9
      thresh= 7.240E-07 alpha_mix =  0.700 |ddv_scf|^2 =  6.226E-12

      iter #   4 total cpu time :  5537.2 secs   av.it.:  15.7
      thresh= 2.495E-07 alpha_mix =  0.700 |ddv_scf|^2 =  9.540E-14

      iter #   5 total cpu time :  5616.6 secs   av.it.:  15.5
      thresh= 3.089E-08 alpha_mix =  0.700 |ddv_scf|^2 =  3.151E-15

     End of self-consistent calculation

     Convergence has been achieved 


     Representation #   4 mode #   4

     Self-consistent Calculation

      iter #   1 total cpu time :  5680.8 secs   av.it.:   5.0
      thresh= 1.000E-02 alpha_mix =  0.700 |ddv_scf|^2 =  1.245E-08

      iter #   2 total cpu time :  5761.3 secs   av.it.:  15.8
      thresh= 1.116E-05 alpha_mix =  0.700 |ddv_scf|^2 =  2.741E-09

      iter #   3 total cpu time :  5839.1 secs   av.it.:  15.0
      thresh= 5.236E-06 alpha_mix =  0.700 |ddv_scf|^2 =  2.105E-11

      iter #   4 total cpu time :  5917.7 secs   av.it.:  15.6
      thresh= 4.588E-07 alpha_mix =  0.700 |ddv_scf|^2 =  1.423E-12

      iter #   5 total cpu time :  5997.8 secs   av.it.:  15.6
      thresh= 1.193E-07 alpha_mix =  0.700 |ddv_scf|^2 =  2.000E-14

      iter #   6 total cpu time :  6078.6 secs   av.it.:  15.9
      thresh= 1.414E-08 alpha_mix =  0.700 |ddv_scf|^2 =  2.143E-16

     End of self-consistent calculation

     Convergence has been achieved 


     Representation #   5 mode #   5

     Self-consistent Calculation

      iter #   1 total cpu time :  6168.2 secs   av.it.:   6.6
      thresh= 1.000E-02 alpha_mix =  0.700 |ddv_scf|^2 =  6.333E-08

      iter #   2 total cpu time :  6246.3 secs   av.it.:  15.3
      thresh= 2.517E-05 alpha_mix =  0.700 |ddv_scf|^2 =  1.818E-08

      iter #   3 total cpu time :  6322.2 secs   av.it.:  14.6
      thresh= 1.348E-05 alpha_mix =  0.700 |ddv_scf|^2 =  3.316E-11

      iter #   4 total cpu time :  6400.3 secs   av.it.:  15.0
      thresh= 5.759E-07 alpha_mix =  0.700 |ddv_scf|^2 =  1.205E-12

      iter #   5 total cpu time :  6477.5 secs   av.it.:  14.7
      thresh= 1.098E-07 alpha_mix =  0.700 |ddv_scf|^2 =  1.105E-14

      iter #   6 total cpu time :  6554.5 secs   av.it.:  14.8
      thresh= 1.051E-08 alpha_mix =  0.700 |ddv_scf|^2 =  2.137E-16

     End of self-consistent calculation

     Convergence has been achieved 


     Representation #   6 mode #   6

     Self-consistent Calculation

      iter #   1 total cpu time :  6619.1 secs   av.it.:   3.2
      thresh= 1.000E-02 alpha_mix =  0.700 |ddv_scf|^2 =  1.745E-09

      iter #   2 total cpu time :  6700.1 secs   av.it.:  15.9
      thresh= 4.177E-06 alpha_mix =  0.700 |ddv_scf|^2 =  4.671E-10

      iter #   3 total cpu time :  6777.9 secs   av.it.:  15.3
      thresh= 2.161E-06 alpha_mix =  0.700 |ddv_scf|^2 =  4.237E-12

      iter #   4 total cpu time :  6856.3 secs   av.it.:  15.5
      thresh= 2.058E-07 alpha_mix =  0.700 |ddv_scf|^2 =  2.162E-13

      iter #   5 total cpu time :  6935.2 secs   av.it.:  15.2
      thresh= 4.650E-08 alpha_mix =  0.700 |ddv_scf|^2 =  4.568E-15

     End of self-consistent calculation

     Convergence has been achieved 


     Representation #   7 mode #   7

     Self-consistent Calculation

      iter #   1 total cpu time :  6993.1 secs   av.it.:   3.0
      thresh= 1.000E-02 alpha_mix =  0.700 |ddv_scf|^2 =  1.420E-09

      iter #   2 total cpu time :  7071.7 secs   av.it.:  15.2
      thresh= 3.768E-06 alpha_mix =  0.700 |ddv_scf|^2 =  1.333E-10

      iter #   3 total cpu time :  7150.1 secs   av.it.:  15.1
      thresh= 1.154E-06 alpha_mix =  0.700 |ddv_scf|^2 =  1.243E-12

      iter #   4 total cpu time :  7230.1 secs   av.it.:  15.8
      thresh= 1.115E-07 alpha_mix =  0.700 |ddv_scf|^2 =  7.099E-14

      iter #   5 total cpu time :  7310.6 secs   av.it.:  15.7
      thresh= 2.664E-08 alpha_mix =  0.700 |ddv_scf|^2 =  5.936E-15

     End of self-consistent calculation

     Convergence has been achieved 


     Representation #   8 mode #   8

     Self-consistent Calculation

      iter #   1 total cpu time :  7368.5 secs   av.it.:   3.0
      thresh= 1.000E-02 alpha_mix =  0.700 |ddv_scf|^2 =  9.309E-10

      iter #   2 total cpu time :  7448.6 secs   av.it.:  15.4
      thresh= 3.051E-06 alpha_mix =  0.700 |ddv_scf|^2 =  8.100E-11

      iter #   3 total cpu time :  7528.7 secs   av.it.:  15.7
      thresh= 9.000E-07 alpha_mix =  0.700 |ddv_scf|^2 =  2.207E-12

      iter #   4 total cpu time :  7609.3 secs   av.it.:  15.9
      thresh= 1.486E-07 alpha_mix =  0.700 |ddv_scf|^2 =  1.765E-13

      iter #   5 total cpu time :  7688.3 secs   av.it.:  15.5
      thresh= 4.201E-08 alpha_mix =  0.700 |ddv_scf|^2 =  5.813E-15

     End of self-consistent calculation

     Convergence has been achieved 


     Representation #   9 mode #   9

     Self-consistent Calculation

      iter #   1 total cpu time :  7752.8 secs   av.it.:   4.9
      thresh= 1.000E-02 alpha_mix =  0.700 |ddv_scf|^2 =  8.210E-09

      iter #   2 total cpu time :  7832.6 secs   av.it.:  16.0
      thresh= 9.061E-06 alpha_mix =  0.700 |ddv_scf|^2 =  1.293E-09

      iter #   3 total cpu time :  7908.9 secs   av.it.:  15.2
      thresh= 3.596E-06 alpha_mix =  0.700 |ddv_scf|^2 =  2.422E-11

      iter #   4 total cpu time :  7987.9 secs   av.it.:  15.7
      thresh= 4.922E-07 alpha_mix =  0.700 |ddv_scf|^2 =  1.656E-12

      iter #   5 total cpu time :  8067.6 secs   av.it.:  15.7
      thresh= 1.287E-07 alpha_mix =  0.700 |ddv_scf|^2 =  3.372E-14

      iter #   6 total cpu time :  8147.0 secs   av.it.:  15.8
      thresh= 1.836E-08 alpha_mix =  0.700 |ddv_scf|^2 =  2.368E-16

     End of self-consistent calculation

     Convergence has been achieved 


     Representation #  10 mode #  10

     Self-consistent Calculation

      iter #   1 total cpu time :  8221.8 secs   av.it.:   3.0
      thresh= 1.000E-02 alpha_mix =  0.700 |ddv_scf|^2 =  1.103E-09

      iter #   2 total cpu time :  8302.1 secs   av.it.:  15.9
      thresh= 3.322E-06 alpha_mix =  0.700 |ddv_scf|^2 =  1.132E-10

      iter #   3 total cpu time :  8382.6 secs   av.it.:  15.9
      thresh= 1.064E-06 alpha_mix =  0.700 |ddv_scf|^2 =  4.070E-12

      iter #   4 total cpu time :  8462.5 secs   av.it.:  15.9
      thresh= 2.017E-07 alpha_mix =  0.700 |ddv_scf|^2 =  1.673E-13

      iter #   5 total cpu time :  8542.3 secs   av.it.:  15.8
      thresh= 4.090E-08 alpha_mix =  0.700 |ddv_scf|^2 =  6.349E-15

     End of self-consistent calculation

     Convergence has been achieved 


     Representation #  11 mode #  11

     Self-consistent Calculation

      iter #   1 total cpu time :  8601.3 secs   av.it.:   3.0
      thresh= 1.000E-02 alpha_mix =  0.700 |ddv_scf|^2 =  9.350E-10

      iter #   2 total cpu time :  8682.6 secs   av.it.:  15.9
      thresh= 3.058E-06 alpha_mix =  0.700 |ddv_scf|^2 =  1.711E-10

      iter #   3 total cpu time :  8761.0 secs   av.it.:  15.5
      thresh= 1.308E-06 alpha_mix =  0.700 |ddv_scf|^2 =  6.399E-12

      iter #   4 total cpu time :  8840.0 secs   av.it.:  15.7
      thresh= 2.530E-07 alpha_mix =  0.700 |ddv_scf|^2 =  1.053E-13

      iter #   5 total cpu time :  8918.1 secs   av.it.:  15.3
      thresh= 3.245E-08 alpha_mix =  0.700 |ddv_scf|^2 =  4.045E-15

     End of self-consistent calculation

     Convergence has been achieved 


     Representation #  12 mode #  12

     Self-consistent Calculation

      iter #   1 total cpu time :  8976.4 secs   av.it.:   3.0
      thresh= 1.000E-02 alpha_mix =  0.700 |ddv_scf|^2 =  8.366E-10

      iter #   2 total cpu time :  9056.3 secs   av.it.:  15.9
      thresh= 2.892E-06 alpha_mix =  0.700 |ddv_scf|^2 =  1.202E-10

      iter #   3 total cpu time :  9133.3 secs   av.it.:  15.9
      thresh= 1.096E-06 alpha_mix =  0.700 |ddv_scf|^2 =  4.247E-12

      iter #   4 total cpu time :  9210.2 secs   av.it.:  15.9
      thresh= 2.061E-07 alpha_mix =  0.700 |ddv_scf|^2 =  2.827E-13

      iter #   5 total cpu time :  9289.7 secs   av.it.:  15.4
      thresh= 5.317E-08 alpha_mix =  0.700 |ddv_scf|^2 =  5.324E-15

     End of self-consistent calculation

     Convergence has been achieved 


     Representation #  13 mode #  13

     Self-consistent Calculation

      iter #   1 total cpu time :  9348.4 secs   av.it.:   3.4
      thresh= 1.000E-02 alpha_mix =  0.700 |ddv_scf|^2 =  1.789E-09

      iter #   2 total cpu time :  9428.1 secs   av.it.:  15.8
      thresh= 4.230E-06 alpha_mix =  0.700 |ddv_scf|^2 =  5.598E-10

      iter #   3 total cpu time :  9504.1 secs   av.it.:  15.0
      thresh= 2.366E-06 alpha_mix =  0.700 |ddv_scf|^2 =  1.765E-12

      iter #   4 total cpu time :  9578.9 secs   av.it.:  15.6
      thresh= 1.329E-07 alpha_mix =  0.700 |ddv_scf|^2 =  5.342E-14

      iter #   5 total cpu time :  9654.8 secs   av.it.:  15.6
      thresh= 2.311E-08 alpha_mix =  0.700 |ddv_scf|^2 =  2.415E-15

     End of self-consistent calculation

     Convergence has been achieved 


     Representation #  14 mode #  14

     Self-consistent Calculation

      iter #   1 total cpu time :  9716.9 secs   av.it.:   4.1
      thresh= 1.000E-02 alpha_mix =  0.700 |ddv_scf|^2 =  1.073E-08

      iter #   2 total cpu time :  9792.7 secs   av.it.:  15.3
      thresh= 1.036E-05 alpha_mix =  0.700 |ddv_scf|^2 =  1.439E-09

      iter #   3 total cpu time :  9868.6 secs   av.it.:  15.0
      thresh= 3.794E-06 alpha_mix =  0.700 |ddv_scf|^2 =  1.130E-11

      iter #   4 total cpu time :  9948.4 secs   av.it.:  15.7
      thresh= 3.362E-07 alpha_mix =  0.700 |ddv_scf|^2 =  1.571E-12

      iter #   5 total cpu time : 10027.3 secs   av.it.:  15.6
      thresh= 1.253E-07 alpha_mix =  0.700 |ddv_scf|^2 =  7.701E-14

      iter #   6 total cpu time : 10106.3 secs   av.it.:  15.3
      thresh= 2.775E-08 alpha_mix =  0.700 |ddv_scf|^2 =  1.645E-16

     End of self-consistent calculation

     Convergence has been achieved 


     Representation #  15 mode #  15

     Self-consistent Calculation

      iter #   1 total cpu time : 10180.8 secs   av.it.:   3.0
      thresh= 1.000E-02 alpha_mix =  0.700 |ddv_scf|^2 =  1.723E-09

      iter #   2 total cpu time : 10260.7 secs   av.it.:  15.8
      thresh= 4.151E-06 alpha_mix =  0.700 |ddv_scf|^2 =  3.470E-10

      iter #   3 total cpu time : 10339.2 secs   av.it.:  15.4
      thresh= 1.863E-06 alpha_mix =  0.700 |ddv_scf|^2 =  3.714E-12

      iter #   4 total cpu time : 10418.8 secs   av.it.:  15.8
      thresh= 1.927E-07 alpha_mix =  0.700 |ddv_scf|^2 =  1.367E-13

      iter #   5 total cpu time : 10496.1 secs   av.it.:  15.8
      thresh= 3.697E-08 alpha_mix =  0.700 |ddv_scf|^2 =  4.600E-15

     End of self-consistent calculation

     Convergence has been achieved 


     Representation #  16 mode #  16

     Self-consistent Calculation

      iter #   1 total cpu time : 10553.8 secs   av.it.:   3.0
      thresh= 1.000E-02 alpha_mix =  0.700 |ddv_scf|^2 =  1.711E-09

      iter #   2 total cpu time : 10633.7 secs   av.it.:  15.9
      thresh= 4.137E-06 alpha_mix =  0.700 |ddv_scf|^2 =  5.441E-10

      iter #   3 total cpu time : 10711.7 secs   av.it.:  15.0
      thresh= 2.333E-06 alpha_mix =  0.700 |ddv_scf|^2 =  1.779E-12

      iter #   4 total cpu time : 10793.2 secs   av.it.:  15.9
      thresh= 1.334E-07 alpha_mix =  0.700 |ddv_scf|^2 =  4.453E-14

      iter #   5 total cpu time : 10872.4 secs   av.it.:  15.6
      thresh= 2.110E-08 alpha_mix =  0.700 |ddv_scf|^2 =  2.863E-15

     End of self-consistent calculation

     Convergence has been achieved 


     Representation #  17 mode #  17

     Self-consistent Calculation

      iter #   1 total cpu time : 10936.8 secs   av.it.:   5.0
      thresh= 1.000E-02 alpha_mix =  0.700 |ddv_scf|^2 =  1.351E-08

      iter #   2 total cpu time : 11016.4 secs   av.it.:  15.8
      thresh= 1.162E-05 alpha_mix =  0.700 |ddv_scf|^2 =  5.425E-09

      iter #   3 total cpu time : 11092.7 secs   av.it.:  14.9
      thresh= 7.365E-06 alpha_mix =  0.700 |ddv_scf|^2 =  1.138E-10

      iter #   4 total cpu time : 11170.0 secs   av.it.:  15.0
      thresh= 1.067E-06 alpha_mix =  0.700 |ddv_scf|^2 =  7.274E-12

      iter #   5 total cpu time : 11248.7 secs   av.it.:  15.0
      thresh= 2.697E-07 alpha_mix =  0.700 |ddv_scf|^2 =  5.747E-13

      iter #   6 total cpu time : 11327.6 secs   av.it.:  15.0
      thresh= 7.581E-08 alpha_mix =  0.700 |ddv_scf|^2 =  2.476E-14

      iter #   7 total cpu time : 11408.1 secs   av.it.:  15.8
      thresh= 1.574E-08 alpha_mix =  0.700 |ddv_scf|^2 =  4.339E-15

     End of self-consistent calculation

     Convergence has been achieved 


     Representation #  18 mode #  18

     Self-consistent Calculation

      iter #   1 total cpu time : 11484.1 secs   av.it.:   3.1
      thresh= 1.000E-02 alpha_mix =  0.700 |ddv_scf|^2 =  4.038E-09

      iter #   2 total cpu time : 11564.0 secs   av.it.:  15.5
      thresh= 6.354E-06 alpha_mix =  0.700 |ddv_scf|^2 =  2.455E-09

      iter #   3 total cpu time : 11637.6 secs   av.it.:  14.7
      thresh= 4.955E-06 alpha_mix =  0.700 |ddv_scf|^2 =  6.500E-12

      iter #   4 total cpu time : 11714.3 secs   av.it.:  15.1
      thresh= 2.550E-07 alpha_mix =  0.700 |ddv_scf|^2 =  1.399E-12

      iter #   5 total cpu time : 11790.0 secs   av.it.:  14.8
      thresh= 1.183E-07 alpha_mix =  0.700 |ddv_scf|^2 =  8.292E-14

      iter #   6 total cpu time : 11868.0 secs   av.it.:  15.0
      thresh= 2.880E-08 alpha_mix =  0.700 |ddv_scf|^2 =  3.317E-15

     End of self-consistent calculation

     Convergence has been achieved 


     Representation #  19 mode #  19

     Self-consistent Calculation

      iter #   1 total cpu time : 11926.8 secs   av.it.:   3.0
      thresh= 1.000E-02 alpha_mix =  0.700 |ddv_scf|^2 =  1.045E-09

      iter #   2 total cpu time : 12007.4 secs   av.it.:  15.9
      thresh= 3.233E-06 alpha_mix =  0.700 |ddv_scf|^2 =  2.326E-10

      iter #   3 total cpu time : 12084.5 secs   av.it.:  15.5
      thresh= 1.525E-06 alpha_mix =  0.700 |ddv_scf|^2 =  1.270E-11

      iter #   4 total cpu time : 12162.6 secs   av.it.:  15.0
      thresh= 3.564E-07 alpha_mix =  0.700 |ddv_scf|^2 =  5.773E-13

      iter #   5 total cpu time : 12241.4 secs   av.it.:  15.4
      thresh= 7.598E-08 alpha_mix =  0.700 |ddv_scf|^2 =  1.114E-14

      iter #   6 total cpu time : 12320.2 secs   av.it.:  15.8
      thresh= 1.056E-08 alpha_mix =  0.700 |ddv_scf|^2 =  1.942E-15

     End of self-consistent calculation

     Convergence has been achieved 


     Representation #  20 mode #  20

     Self-consistent Calculation

      iter #   1 total cpu time : 12379.7 secs   av.it.:   3.9
      thresh= 1.000E-02 alpha_mix =  0.700 |ddv_scf|^2 =  7.162E-09

      iter #   2 total cpu time : 12458.2 secs   av.it.:  15.3
      thresh= 8.463E-06 alpha_mix =  0.700 |ddv_scf|^2 =  4.871E-09

      iter #   3 total cpu time : 12533.2 secs   av.it.:  14.6
      thresh= 6.979E-06 alpha_mix =  0.700 |ddv_scf|^2 =  1.535E-11

      iter #   4 total cpu time : 12610.0 secs   av.it.:  14.9
      thresh= 3.918E-07 alpha_mix =  0.700 |ddv_scf|^2 =  1.157E-12

      iter #   5 total cpu time : 12686.2 secs   av.it.:  15.1
      thresh= 1.076E-07 alpha_mix =  0.700 |ddv_scf|^2 =  1.172E-13

      iter #   6 total cpu time : 12759.0 secs   av.it.:  14.9
      thresh= 3.424E-08 alpha_mix =  0.700 |ddv_scf|^2 =  7.425E-15

     End of self-consistent calculation

     Convergence has been achieved 


     Representation #  21 mode #  21

     Self-consistent Calculation

      iter #   1 total cpu time : 12817.3 secs   av.it.:   3.0
      thresh= 1.000E-02 alpha_mix =  0.700 |ddv_scf|^2 =  6.475E-09

      iter #   2 total cpu time : 12894.7 secs   av.it.:  15.3
      thresh= 8.047E-06 alpha_mix =  0.700 |ddv_scf|^2 =  4.524E-09

      iter #   3 total cpu time : 12969.3 secs   av.it.:  14.6
      thresh= 6.726E-06 alpha_mix =  0.700 |ddv_scf|^2 =  6.052E-12

      iter #   4 total cpu time : 13050.1 secs   av.it.:  15.8
      thresh= 2.460E-07 alpha_mix =  0.700 |ddv_scf|^2 =  1.398E-12

      iter #   5 total cpu time : 13129.7 secs   av.it.:  15.1
      thresh= 1.182E-07 alpha_mix =  0.700 |ddv_scf|^2 =  7.674E-14

      iter #   6 total cpu time : 13209.2 secs   av.it.:  15.2
      thresh= 2.770E-08 alpha_mix =  0.700 |ddv_scf|^2 =  2.860E-15

     End of self-consistent calculation

     Convergence has been achieved 


     Representation #  22 mode #  22

     Self-consistent Calculation

      iter #   1 total cpu time : 13281.4 secs   av.it.:   6.4
      thresh= 1.000E-02 alpha_mix =  0.700 |ddv_scf|^2 =  4.045E-08

      iter #   2 total cpu time : 13358.9 secs   av.it.:  15.2
      thresh= 2.011E-05 alpha_mix =  0.700 |ddv_scf|^2 =  6.369E-09

      iter #   3 total cpu time : 13435.1 secs   av.it.:  14.6
      thresh= 7.980E-06 alpha_mix =  0.700 |ddv_scf|^2 =  3.081E-11

      iter #   4 total cpu time : 13511.6 secs   av.it.:  14.7
      thresh= 5.550E-07 alpha_mix =  0.700 |ddv_scf|^2 =  2.073E-13

      iter #   5 total cpu time : 13589.7 secs   av.it.:  15.4
      thresh= 4.552E-08 alpha_mix =  0.700 |ddv_scf|^2 =  7.988E-15

     End of self-consistent calculation

     Convergence has been achieved 


     Representation #  23 mode #  23

     Self-consistent Calculation

      iter #   1 total cpu time : 13653.5 secs   av.it.:   3.0
      thresh= 1.000E-02 alpha_mix =  0.700 |ddv_scf|^2 =  4.173E-09

      iter #   2 total cpu time : 13731.3 secs   av.it.:  15.0
      thresh= 6.460E-06 alpha_mix =  0.700 |ddv_scf|^2 =  2.115E-09

      iter #   3 total cpu time : 13806.4 secs   av.it.:  14.5
      thresh= 4.599E-06 alpha_mix =  0.700 |ddv_scf|^2 =  2.115E-11

      iter #   4 total cpu time : 13883.5 secs   av.it.:  15.0
      thresh= 4.599E-07 alpha_mix =  0.700 |ddv_scf|^2 =  1.492E-12

      iter #   5 total cpu time : 13959.7 secs   av.it.:  14.9
      thresh= 1.222E-07 alpha_mix =  0.700 |ddv_scf|^2 =  3.217E-14

      iter #   6 total cpu time : 14040.0 secs   av.it.:  15.6
      thresh= 1.793E-08 alpha_mix =  0.700 |ddv_scf|^2 =  6.099E-15

     End of self-consistent calculation

     Convergence has been achieved 


     Representation #  24 mode #  24

     Self-consistent Calculation

      iter #   1 total cpu time : 14097.8 secs   av.it.:   3.0
      thresh= 1.000E-02 alpha_mix =  0.700 |ddv_scf|^2 =  7.206E-10

      iter #   2 total cpu time : 14177.6 secs   av.it.:  15.7
      thresh= 2.684E-06 alpha_mix =  0.700 |ddv_scf|^2 =  9.806E-11

      iter #   3 total cpu time : 14255.8 secs   av.it.:  15.3
      thresh= 9.903E-07 alpha_mix =  0.700 |ddv_scf|^2 =  1.085E-11

      iter #   4 total cpu time : 14331.4 secs   av.it.:  14.9
      thresh= 3.293E-07 alpha_mix =  0.700 |ddv_scf|^2 =  7.611E-13

      iter #   5 total cpu time : 14407.5 secs   av.it.:  15.0
      thresh= 8.724E-08 alpha_mix =  0.700 |ddv_scf|^2 =  1.333E-14

      iter #   6 total cpu time : 14485.8 secs   av.it.:  15.2
      thresh= 1.154E-08 alpha_mix =  0.700 |ddv_scf|^2 =  1.814E-15

     End of self-consistent calculation

     Convergence has been achieved 


     Representation #  25 mode #  25

     Self-consistent Calculation

      iter #   1 total cpu time : 14544.5 secs   av.it.:   3.2
      thresh= 1.000E-02 alpha_mix =  0.700 |ddv_scf|^2 =  5.358E-09

      iter #   2 total cpu time : 14621.7 secs   av.it.:  15.6
      thresh= 7.320E-06 alpha_mix =  0.700 |ddv_scf|^2 =  3.123E-09

      iter #   3 total cpu time : 14692.6 secs   av.it.:  14.8
      thresh= 5.588E-06 alpha_mix =  0.700 |ddv_scf|^2 =  2.050E-11

      iter #   4 total cpu time : 14767.6 secs   av.it.:  15.0
      thresh= 4.528E-07 alpha_mix =  0.700 |ddv_scf|^2 =  1.321E-12

      iter #   5 total cpu time : 14846.5 secs   av.it.:  15.3
      thresh= 1.149E-07 alpha_mix =  0.700 |ddv_scf|^2 =  9.158E-14

      iter #   6 total cpu time : 14924.7 secs   av.it.:  15.0
      thresh= 3.026E-08 alpha_mix =  0.700 |ddv_scf|^2 =  7.604E-15

     End of self-consistent calculation

     Convergence has been achieved 


     Representation #  26 mode #  26

     Self-consistent Calculation

      iter #   1 total cpu time : 14983.2 secs   av.it.:   3.0
      thresh= 1.000E-02 alpha_mix =  0.700 |ddv_scf|^2 =  4.189E-09

      iter #   2 total cpu time : 15060.8 secs   av.it.:  15.0
      thresh= 6.472E-06 alpha_mix =  0.700 |ddv_scf|^2 =  1.457E-09

      iter #   3 total cpu time : 15136.0 secs   av.it.:  14.5
      thresh= 3.817E-06 alpha_mix =  0.700 |ddv_scf|^2 =  1.864E-11

      iter #   4 total cpu time : 15212.6 secs   av.it.:  14.9
      thresh= 4.318E-07 alpha_mix =  0.700 |ddv_scf|^2 =  1.986E-12

      iter #   5 total cpu time : 15287.6 secs   av.it.:  14.9
      thresh= 1.409E-07 alpha_mix =  0.700 |ddv_scf|^2 =  2.142E-14

      iter #   6 total cpu time : 15366.9 secs   av.it.:  15.4
      thresh= 1.464E-08 alpha_mix =  0.700 |ddv_scf|^2 =  4.627E-15

     End of self-consistent calculation

     Convergence has been achieved 


     Representation #  27 mode #  27

     Self-consistent Calculation

      iter #   1 total cpu time : 15432.4 secs   av.it.:   5.0
      thresh= 1.000E-02 alpha_mix =  0.700 |ddv_scf|^2 =  5.397E-08

      iter #   2 total cpu time : 15509.5 secs   av.it.:  15.0
      thresh= 2.323E-05 alpha_mix =  0.700 |ddv_scf|^2 =  3.630E-08

      iter #   3 total cpu time : 15583.2 secs   av.it.:  14.0
      thresh= 1.905E-05 alpha_mix =  0.700 |ddv_scf|^2 =  1.748E-10

      iter #   4 total cpu time : 15661.2 secs   av.it.:  15.0
      thresh= 1.322E-06 alpha_mix =  0.700 |ddv_scf|^2 =  6.211E-12

      iter #   5 total cpu time : 15738.9 secs   av.it.:  15.0
      thresh= 2.492E-07 alpha_mix =  0.700 |ddv_scf|^2 =  1.308E-13

      iter #   6 total cpu time : 15818.3 secs   av.it.:  15.7
      thresh= 3.617E-08 alpha_mix =  0.700 |ddv_scf|^2 =  9.190E-15

     End of self-consistent calculation

     Convergence has been achieved 


     Representation #  28 mode #  28

     Self-consistent Calculation

      iter #   1 total cpu time : 15892.6 secs   av.it.:   3.0
      thresh= 1.000E-02 alpha_mix =  0.700 |ddv_scf|^2 =  9.422E-09

      iter #   2 total cpu time : 15969.4 secs   av.it.:  14.9
      thresh= 9.707E-06 alpha_mix =  0.700 |ddv_scf|^2 =  7.404E-09

      iter #   3 total cpu time : 16042.9 secs   av.it.:  13.9
      thresh= 8.605E-06 alpha_mix =  0.700 |ddv_scf|^2 =  3.756E-12

      iter #   4 total cpu time : 16123.1 secs   av.it.:  15.6
      thresh= 1.938E-07 alpha_mix =  0.700 |ddv_scf|^2 =  8.143E-13

      iter #   5 total cpu time : 16200.8 secs   av.it.:  15.0
      thresh= 9.024E-08 alpha_mix =  0.700 |ddv_scf|^2 =  1.086E-14

      iter #   6 total cpu time : 16279.2 secs   av.it.:  15.0
      thresh= 1.042E-08 alpha_mix =  0.700 |ddv_scf|^2 =  4.712E-16

     End of self-consistent calculation

     Convergence has been achieved 


     Representation #  29 mode #  29

     Self-consistent Calculation

      iter #   1 total cpu time : 16339.0 secs   av.it.:   3.9
      thresh= 1.000E-02 alpha_mix =  0.700 |ddv_scf|^2 =  4.937E-09

      iter #   2 total cpu time : 16414.3 secs   av.it.:  15.6
      thresh= 7.026E-06 alpha_mix =  0.700 |ddv_scf|^2 =  3.134E-09

      iter #   3 total cpu time : 16488.0 secs   av.it.:  14.9
      thresh= 5.598E-06 alpha_mix =  0.700 |ddv_scf|^2 =  4.463E-12

      iter #   4 total cpu time : 16567.0 secs   av.it.:  15.3
      thresh= 2.112E-07 alpha_mix =  0.700 |ddv_scf|^2 =  1.422E-12

      iter #   5 total cpu time : 16643.9 secs   av.it.:  15.0
      thresh= 1.193E-07 alpha_mix =  0.700 |ddv_scf|^2 =  5.769E-14

      iter #   6 total cpu time : 16720.6 secs   av.it.:  15.0
      thresh= 2.402E-08 alpha_mix =  0.700 |ddv_scf|^2 =  4.263E-15

     End of self-consistent calculation

     Convergence has been achieved 


     Representation #  30 mode #  30

     Self-consistent Calculation

      iter #   1 total cpu time : 16786.3 secs   av.it.:   5.0
      thresh= 1.000E-02 alpha_mix =  0.700 |ddv_scf|^2 =  5.093E-08

      iter #   2 total cpu time : 16864.7 secs   av.it.:  15.0
      thresh= 2.257E-05 alpha_mix =  0.700 |ddv_scf|^2 =  3.892E-08

      iter #   3 total cpu time : 16938.6 secs   av.it.:  14.0
      thresh= 1.973E-05 alpha_mix =  0.700 |ddv_scf|^2 =  8.963E-11

      iter #   4 total cpu time : 17017.0 secs   av.it.:  15.0
      thresh= 9.467E-07 alpha_mix =  0.700 |ddv_scf|^2 =  7.805E-12

      iter #   5 total cpu time : 17095.2 secs   av.it.:  15.0
      thresh= 2.794E-07 alpha_mix =  0.700 |ddv_scf|^2 =  4.526E-13

      iter #   6 total cpu time : 17173.8 secs   av.it.:  15.6
      thresh= 6.727E-08 alpha_mix =  0.700 |ddv_scf|^2 =  4.650E-14

      iter #   7 total cpu time : 17251.7 secs   av.it.:  15.3
      thresh= 2.156E-08 alpha_mix =  0.700 |ddv_scf|^2 =  2.267E-15

     End of self-consistent calculation

     Convergence has been achieved 


     Representation #  31 mode #  31

     Self-consistent Calculation

      iter #   1 total cpu time : 17327.0 secs   av.it.:   3.0
      thresh= 1.000E-02 alpha_mix =  0.700 |ddv_scf|^2 =  6.822E-09

      iter #   2 total cpu time : 17405.4 secs   av.it.:  14.9
      thresh= 8.260E-06 alpha_mix =  0.700 |ddv_scf|^2 =  3.626E-09

      iter #   3 total cpu time : 17480.7 secs   av.it.:  14.4
      thresh= 6.021E-06 alpha_mix =  0.700 |ddv_scf|^2 =  1.439E-11

      iter #   4 total cpu time : 17559.1 secs   av.it.:  15.0
      thresh= 3.793E-07 alpha_mix =  0.700 |ddv_scf|^2 =  1.851E-12

      iter #   5 total cpu time : 17635.0 secs   av.it.:  14.7
      thresh= 1.360E-07 alpha_mix =  0.700 |ddv_scf|^2 =  7.146E-14

      iter #   6 total cpu time : 17714.0 secs   av.it.:  15.0
      thresh= 2.673E-08 alpha_mix =  0.700 |ddv_scf|^2 =  8.160E-15

     End of self-consistent calculation

     Convergence has been achieved 


     Representation #  32 mode #  32

     Self-consistent Calculation

      iter #   1 total cpu time : 17773.8 secs   av.it.:   3.4
      thresh= 1.000E-02 alpha_mix =  0.700 |ddv_scf|^2 =  2.918E-09

      iter #   2 total cpu time : 17855.9 secs   av.it.:  15.9
      thresh= 5.401E-06 alpha_mix =  0.700 |ddv_scf|^2 =  1.760E-09

      iter #   3 total cpu time : 17933.3 secs   av.it.:  14.7
      thresh= 4.195E-06 alpha_mix =  0.700 |ddv_scf|^2 =  9.994E-12

      iter #   4 total cpu time : 18011.2 secs   av.it.:  14.9
      thresh= 3.161E-07 alpha_mix =  0.700 |ddv_scf|^2 =  1.199E-12

      iter #   5 total cpu time : 18089.7 secs   av.it.:  15.0
      thresh= 1.095E-07 alpha_mix =  0.700 |ddv_scf|^2 =  1.015E-13

      iter #   6 total cpu time : 18166.9 secs   av.it.:  15.0
      thresh= 3.185E-08 alpha_mix =  0.700 |ddv_scf|^2 =  8.025E-15

     End of self-consistent calculation

     Convergence has been achieved 


     Representation #  33 mode #  33

     Self-consistent Calculation

      iter #   1 total cpu time : 18226.3 secs   av.it.:   3.6
      thresh= 1.000E-02 alpha_mix =  0.700 |ddv_scf|^2 =  4.831E-09

      iter #   2 total cpu time : 18305.0 secs   av.it.:  15.7
      thresh= 6.950E-06 alpha_mix =  0.700 |ddv_scf|^2 =  3.715E-09

      iter #   3 total cpu time : 18379.4 secs   av.it.:  14.9
      thresh= 6.095E-06 alpha_mix =  0.700 |ddv_scf|^2 =  6.412E-12

      iter #   4 total cpu time : 18459.6 secs   av.it.:  15.9
      thresh= 2.532E-07 alpha_mix =  0.700 |ddv_scf|^2 =  4.603E-13

      iter #   5 total cpu time : 18539.6 secs   av.it.:  15.9
      thresh= 6.784E-08 alpha_mix =  0.700 |ddv_scf|^2 =  1.908E-14

      iter #   6 total cpu time : 18617.6 secs   av.it.:  15.9
      thresh= 1.381E-08 alpha_mix =  0.700 |ddv_scf|^2 =  1.033E-15

     End of self-consistent calculation

     Convergence has been achieved 


     Representation #  34 mode #  34

     Self-consistent Calculation

      iter #   1 total cpu time : 18674.8 secs   av.it.:   3.0
      thresh= 1.000E-02 alpha_mix =  0.700 |ddv_scf|^2 =  7.850E-10

      iter #   2 total cpu time : 18753.0 secs   av.it.:  15.7
      thresh= 2.802E-06 alpha_mix =  0.700 |ddv_scf|^2 =  6.892E-11

      iter #   3 total cpu time : 18832.2 secs   av.it.:  15.3
      thresh= 8.302E-07 alpha_mix =  0.700 |ddv_scf|^2 =  4.543E-12

      iter #   4 total cpu time : 18911.0 secs   av.it.:  15.0
      thresh= 2.131E-07 alpha_mix =  0.700 |ddv_scf|^2 =  4.475E-13

      iter #   5 total cpu time : 18988.7 secs   av.it.:  15.0
      thresh= 6.690E-08 alpha_mix =  0.700 |ddv_scf|^2 =  1.913E-14

      iter #   6 total cpu time : 19069.2 secs   av.it.:  15.8
      thresh= 1.383E-08 alpha_mix =  0.700 |ddv_scf|^2 =  8.701E-16

     End of self-consistent calculation

     Convergence has been achieved 


     Representation #  35 mode #  35

     Self-consistent Calculation

      iter #   1 total cpu time : 19128.2 secs   av.it.:   3.0
      thresh= 1.000E-02 alpha_mix =  0.700 |ddv_scf|^2 =  3.286E-09

      iter #   2 total cpu time : 19207.6 secs   av.it.:  15.2
      thresh= 5.732E-06 alpha_mix =  0.700 |ddv_scf|^2 =  1.469E-09

      iter #   3 total cpu time : 19284.4 secs   av.it.:  14.9
      thresh= 3.832E-06 alpha_mix =  0.700 |ddv_scf|^2 =  2.034E-11

      iter #   4 total cpu time : 19362.3 secs   av.it.:  15.0
      thresh= 4.510E-07 alpha_mix =  0.700 |ddv_scf|^2 =  5.311E-13

      iter #   5 total cpu time : 19442.5 secs   av.it.:  15.6
      thresh= 7.287E-08 alpha_mix =  0.700 |ddv_scf|^2 =  3.737E-14

      iter #   6 total cpu time : 19520.8 secs   av.it.:  15.0
      thresh= 1.933E-08 alpha_mix =  0.700 |ddv_scf|^2 =  1.468E-15

     End of self-consistent calculation

     Convergence has been achieved 


     Representation #  36 mode #  36

     Self-consistent Calculation

      iter #   1 total cpu time : 19585.1 secs   av.it.:   4.5
      thresh= 1.000E-02 alpha_mix =  0.700 |ddv_scf|^2 =  5.732E-09

      iter #   2 total cpu time : 19667.0 secs   av.it.:  16.0
      thresh= 7.571E-06 alpha_mix =  0.700 |ddv_scf|^2 =  4.076E-10

      iter #   3 total cpu time : 19747.9 secs   av.it.:  15.9
      thresh= 2.019E-06 alpha_mix =  0.700 |ddv_scf|^2 =  1.766E-11

      iter #   4 total cpu time : 19827.8 secs   av.it.:  15.6
      thresh= 4.202E-07 alpha_mix =  0.700 |ddv_scf|^2 =  3.987E-12

      iter #   5 total cpu time : 19906.7 secs   av.it.:  15.0
      thresh= 1.997E-07 alpha_mix =  0.700 |ddv_scf|^2 =  1.719E-13

      iter #   6 total cpu time : 19985.4 secs   av.it.:  15.1
      thresh= 4.147E-08 alpha_mix =  0.700 |ddv_scf|^2 =  3.799E-15

     End of self-consistent calculation

     Convergence has been achieved 


     Representation #  37 mode #  37

     Self-consistent Calculation

      iter #   1 total cpu time : 20060.3 secs   av.it.:   3.0
      thresh= 1.000E-02 alpha_mix =  0.700 |ddv_scf|^2 =  9.468E-10

      iter #   2 total cpu time : 20141.5 secs   av.it.:  15.9
      thresh= 3.077E-06 alpha_mix =  0.700 |ddv_scf|^2 =  1.686E-10

      iter #   3 total cpu time : 20221.1 secs   av.it.:  15.3
      thresh= 1.298E-06 alpha_mix =  0.700 |ddv_scf|^2 =  2.202E-11

      iter #   4 total cpu time : 20298.0 secs   av.it.:  14.9
      thresh= 4.693E-07 alpha_mix =  0.700 |ddv_scf|^2 =  3.026E-13

      iter #   5 total cpu time : 20376.7 secs   av.it.:  15.3
      thresh= 5.501E-08 alpha_mix =  0.700 |ddv_scf|^2 =  6.798E-15

     End of self-consistent calculation

     Convergence has been achieved 


     Representation #  38 mode #  38

     Self-consistent Calculation

      iter #   1 total cpu time : 20435.5 secs   av.it.:   3.0
      thresh= 1.000E-02 alpha_mix =  0.700 |ddv_scf|^2 =  2.001E-09

      iter #   2 total cpu time : 20515.5 secs   av.it.:  15.4
      thresh= 4.474E-06 alpha_mix =  0.700 |ddv_scf|^2 =  5.072E-10

      iter #   3 total cpu time : 20592.8 secs   av.it.:  15.0
      thresh= 2.252E-06 alpha_mix =  0.700 |ddv_scf|^2 =  1.861E-11

      iter #   4 total cpu time : 20670.7 secs   av.it.:  14.9
      thresh= 4.314E-07 alpha_mix =  0.700 |ddv_scf|^2 =  8.857E-13

      iter #   5 total cpu time : 20749.6 secs   av.it.:  15.4
      thresh= 9.411E-08 alpha_mix =  0.700 |ddv_scf|^2 =  2.724E-14

      iter #   6 total cpu time : 20828.5 secs   av.it.:  15.1
      thresh= 1.651E-08 alpha_mix =  0.700 |ddv_scf|^2 =  9.919E-16

     End of self-consistent calculation

     Convergence has been achieved 


     Representation #  39 mode #  39

     Self-consistent Calculation

      iter #   1 total cpu time : 20900.9 secs   av.it.:   6.3
      thresh= 1.000E-02 alpha_mix =  0.700 |ddv_scf|^2 =  2.369E-07

      iter #   2 total cpu time : 20977.8 secs   av.it.:  14.9
      thresh= 4.867E-05 alpha_mix =  0.700 |ddv_scf|^2 =  1.285E-07

      iter #   3 total cpu time : 21051.7 secs   av.it.:  14.6
      thresh= 3.584E-05 alpha_mix =  0.700 |ddv_scf|^2 =  5.491E-10

      iter #   4 total cpu time : 21129.5 secs   av.it.:  15.1
      thresh= 2.343E-06 alpha_mix =  0.700 |ddv_scf|^2 =  1.146E-11

      iter #   5 total cpu time : 21208.9 secs   av.it.:  15.4
      thresh= 3.385E-07 alpha_mix =  0.700 |ddv_scf|^2 =  4.737E-13

      iter #   6 total cpu time : 21284.6 secs   av.it.:  14.6
      thresh= 6.882E-08 alpha_mix =  0.700 |ddv_scf|^2 =  2.319E-14

      iter #   7 total cpu time : 21360.5 secs   av.it.:  14.7
      thresh= 1.523E-08 alpha_mix =  0.700 |ddv_scf|^2 =  3.464E-15

     End of self-consistent calculation

     Convergence has been achieved 


     Representation #  40 mode #  40

     Self-consistent Calculation

      iter #   1 total cpu time : 21430.2 secs   av.it.:   4.5
      thresh= 1.000E-02 alpha_mix =  0.700 |ddv_scf|^2 =  8.346E-09

      iter #   2 total cpu time : 21510.4 secs   av.it.:  15.9
      thresh= 9.136E-06 alpha_mix =  0.700 |ddv_scf|^2 =  2.027E-09

      iter #   3 total cpu time : 21588.5 secs   av.it.:  15.0
      thresh= 4.502E-06 alpha_mix =  0.700 |ddv_scf|^2 =  7.039E-11

      iter #   4 total cpu time : 21666.9 secs   av.it.:  14.9
      thresh= 8.390E-07 alpha_mix =  0.700 |ddv_scf|^2 =  6.184E-12

      iter #   5 total cpu time : 21745.8 secs   av.it.:  15.1
      thresh= 2.487E-07 alpha_mix =  0.700 |ddv_scf|^2 =  3.395E-13

      iter #   6 total cpu time : 21825.5 secs   av.it.:  15.6
      thresh= 5.827E-08 alpha_mix =  0.700 |ddv_scf|^2 =  1.084E-15

     End of self-consistent calculation

     Convergence has been achieved 


     Representation #  41 mode #  41

     Self-consistent Calculation

      iter #   1 total cpu time : 21902.6 secs   av.it.:   3.9
      thresh= 1.000E-02 alpha_mix =  0.700 |ddv_scf|^2 =  6.307E-09

      iter #   2 total cpu time : 21981.9 secs   av.it.:  15.3
      thresh= 7.941E-06 alpha_mix =  0.700 |ddv_scf|^2 =  4.421E-09

      iter #   3 total cpu time : 22058.0 secs   av.it.:  14.7
      thresh= 6.649E-06 alpha_mix =  0.700 |ddv_scf|^2 =  5.244E-12

      iter #   4 total cpu time : 22138.8 secs   av.it.:  15.8
      thresh= 2.290E-07 alpha_mix =  0.700 |ddv_scf|^2 =  7.879E-13

      iter #   5 total cpu time : 22218.5 secs   av.it.:  15.2
      thresh= 8.876E-08 alpha_mix =  0.700 |ddv_scf|^2 =  4.877E-14

      iter #   6 total cpu time : 22297.1 secs   av.it.:  15.0
      thresh= 2.208E-08 alpha_mix =  0.700 |ddv_scf|^2 =  7.119E-16

     End of self-consistent calculation

     Convergence has been achieved 


     Representation #  42 mode #  42

     Self-consistent Calculation

      iter #   1 total cpu time : 22354.2 secs   av.it.:   3.0
      thresh= 1.000E-02 alpha_mix =  0.700 |ddv_scf|^2 =  3.984E-10

      iter #   2 total cpu time : 22434.4 secs   av.it.:  15.4
      thresh= 1.996E-06 alpha_mix =  0.700 |ddv_scf|^2 =  1.516E-11

      iter #   3 total cpu time : 22516.2 secs   av.it.:  15.9
      thresh= 3.893E-07 alpha_mix =  0.700 |ddv_scf|^2 =  7.964E-12

      iter #   4 total cpu time : 22592.8 secs   av.it.:  14.9
      thresh= 2.822E-07 alpha_mix =  0.700 |ddv_scf|^2 =  2.137E-13

      iter #   5 total cpu time : 22670.6 secs   av.it.:  15.0
      thresh= 4.623E-08 alpha_mix =  0.700 |ddv_scf|^2 =  1.213E-14

      iter #   6 total cpu time : 22748.5 secs   av.it.:  15.1
      thresh= 1.102E-08 alpha_mix =  0.700 |ddv_scf|^2 =  5.628E-16

     End of self-consistent calculation

     Convergence has been achieved 


     Representation #  43 mode #  43

     Self-consistent Calculation

      iter #   1 total cpu time : 22812.8 secs   av.it.:   4.5
      thresh= 1.000E-02 alpha_mix =  0.700 |ddv_scf|^2 =  5.808E-09

      iter #   2 total cpu time : 22894.9 secs   av.it.:  16.0
      thresh= 7.621E-06 alpha_mix =  0.700 |ddv_scf|^2 =  4.578E-10

      iter #   3 total cpu time : 22975.8 secs   av.it.:  15.9
      thresh= 2.140E-06 alpha_mix =  0.700 |ddv_scf|^2 =  3.781E-11

      iter #   4 total cpu time : 23053.0 secs   av.it.:  14.9
      thresh= 6.149E-07 alpha_mix =  0.700 |ddv_scf|^2 =  4.264E-12

      iter #   5 total cpu time : 23131.3 secs   av.it.:  15.0
      thresh= 2.065E-07 alpha_mix =  0.700 |ddv_scf|^2 =  2.303E-14

      iter #   6 total cpu time : 23212.8 secs   av.it.:  15.9
      thresh= 1.518E-08 alpha_mix =  0.700 |ddv_scf|^2 =  9.897E-16

     End of self-consistent calculation

     Convergence has been achieved 


     Representation #  44 mode #  44

     Self-consistent Calculation

      iter #   1 total cpu time : 23302.3 secs   av.it.:   6.4
      thresh= 1.000E-02 alpha_mix =  0.700 |ddv_scf|^2 =  7.664E-08

      iter #   2 total cpu time : 23381.9 secs   av.it.:  15.4
      thresh= 2.768E-05 alpha_mix =  0.700 |ddv_scf|^2 =  2.399E-08

      iter #   3 total cpu time : 23458.6 secs   av.it.:  14.9
      thresh= 1.549E-05 alpha_mix =  0.700 |ddv_scf|^2 =  3.670E-10

      iter #   4 total cpu time : 23535.2 secs   av.it.:  14.9
      thresh= 1.916E-06 alpha_mix =  0.700 |ddv_scf|^2 =  1.950E-11

      iter #   5 total cpu time : 23613.0 secs   av.it.:  14.9
      thresh= 4.416E-07 alpha_mix =  0.700 |ddv_scf|^2 =  1.233E-13

      iter #   6 total cpu time : 23690.7 secs   av.it.:  15.5
      thresh= 3.511E-08 alpha_mix =  0.700 |ddv_scf|^2 =  5.205E-15

     End of self-consistent calculation

     Convergence has been achieved 


     Representation #  45 mode #  45

     Self-consistent Calculation

      iter #   1 total cpu time : 23753.0 secs   av.it.:   3.0
      thresh= 1.000E-02 alpha_mix =  0.700 |ddv_scf|^2 =  1.160E-09

      iter #   2 total cpu time : 23831.7 secs   av.it.:  15.9
      thresh= 3.406E-06 alpha_mix =  0.700 |ddv_scf|^2 =  2.775E-10

      iter #   3 total cpu time : 23909.0 secs   av.it.:  15.0
      thresh= 1.666E-06 alpha_mix =  0.700 |ddv_scf|^2 =  1.810E-11

      iter #   4 total cpu time : 23986.6 secs   av.it.:  15.0
      thresh= 4.255E-07 alpha_mix =  0.700 |ddv_scf|^2 =  4.659E-13

      iter #   5 total cpu time : 24065.6 secs   av.it.:  15.3
      thresh= 6.826E-08 alpha_mix =  0.700 |ddv_scf|^2 =  2.185E-14

      iter #   6 total cpu time : 24144.6 secs   av.it.:  15.1
      thresh= 1.478E-08 alpha_mix =  0.700 |ddv_scf|^2 =  1.173E-15

     End of self-consistent calculation

     Convergence has been achieved 


     Representation #  46 mode #  46

     Self-consistent Calculation

      iter #   1 total cpu time : 24204.1 secs   av.it.:   3.0
      thresh= 1.000E-02 alpha_mix =  0.700 |ddv_scf|^2 =  2.765E-09

      iter #   2 total cpu time : 24285.2 secs   av.it.:  15.9
      thresh= 5.258E-06 alpha_mix =  0.700 |ddv_scf|^2 =  2.170E-09

      iter #   3 total cpu time : 24361.1 secs   av.it.:  14.9
      thresh= 4.658E-06 alpha_mix =  0.700 |ddv_scf|^2 =  5.908E-12

      iter #   4 total cpu time : 24443.0 secs   av.it.:  15.9
      thresh= 2.431E-07 alpha_mix =  0.700 |ddv_scf|^2 =  5.541E-13

      iter #   5 total cpu time : 24524.3 secs   av.it.:  15.9
      thresh= 7.444E-08 alpha_mix =  0.700 |ddv_scf|^2 =  8.298E-15

     End of self-consistent calculation

     Convergence has been achieved 


     Representation #  47 mode #  47

     Self-consistent Calculation

      iter #   1 total cpu time : 24584.0 secs   av.it.:   3.5
      thresh= 1.000E-02 alpha_mix =  0.700 |ddv_scf|^2 =  3.007E-09

      iter #   2 total cpu time : 24664.6 secs   av.it.:  15.8
      thresh= 5.484E-06 alpha_mix =  0.700 |ddv_scf|^2 =  2.421E-09

      iter #   3 total cpu time : 24740.5 secs   av.it.:  14.9
      thresh= 4.920E-06 alpha_mix =  0.700 |ddv_scf|^2 =  7.326E-12

      iter #   4 total cpu time : 24822.1 secs   av.it.:  15.9
      thresh= 2.707E-07 alpha_mix =  0.700 |ddv_scf|^2 =  5.477E-13

      iter #   5 total cpu time : 24903.1 secs   av.it.:  15.8
      thresh= 7.400E-08 alpha_mix =  0.700 |ddv_scf|^2 =  1.043E-14

      iter #   6 total cpu time : 24984.3 secs   av.it.:  15.8
      thresh= 1.021E-08 alpha_mix =  0.700 |ddv_scf|^2 =  7.473E-16

     End of self-consistent calculation

     Convergence has been achieved 


     Representation #  48 mode #  48

     Self-consistent Calculation

      iter #   1 total cpu time : 25042.3 secs   av.it.:   3.0
      thresh= 1.000E-02 alpha_mix =  0.700 |ddv_scf|^2 =  4.239E-10

      iter #   2 total cpu time : 25123.4 secs   av.it.:  15.9
      thresh= 2.059E-06 alpha_mix =  0.700 |ddv_scf|^2 =  2.391E-11

      iter #   3 total cpu time : 25205.1 secs   av.it.:  16.0
      thresh= 4.890E-07 alpha_mix =  0.700 |ddv_scf|^2 =  2.375E-12

      iter #   4 total cpu time : 25286.1 secs   av.it.:  15.9
      thresh= 1.541E-07 alpha_mix =  0.700 |ddv_scf|^2 =  1.499E-13

      iter #   5 total cpu time : 25364.5 secs   av.it.:  15.0
      thresh= 3.871E-08 alpha_mix =  0.700 |ddv_scf|^2 =  2.023E-14

      iter #   6 total cpu time : 25441.6 secs   av.it.:  14.9
      thresh= 1.422E-08 alpha_mix =  0.700 |ddv_scf|^2 =  6.406E-16

     End of self-consistent calculation

     Convergence has been achieved 


     Representation #  49 mode #  49

     Self-consistent Calculation

      iter #   1 total cpu time : 25499.9 secs   av.it.:   3.0
      thresh= 1.000E-02 alpha_mix =  0.700 |ddv_scf|^2 =  1.218E-09

      iter #   2 total cpu time : 25580.0 secs   av.it.:  15.9
      thresh= 3.490E-06 alpha_mix =  0.700 |ddv_scf|^2 =  6.463E-10

      iter #   3 total cpu time : 25655.9 secs   av.it.:  14.9
      thresh= 2.542E-06 alpha_mix =  0.700 |ddv_scf|^2 =  9.357E-12

      iter #   4 total cpu time : 25733.8 secs   av.it.:  15.0
      thresh= 3.059E-07 alpha_mix =  0.700 |ddv_scf|^2 =  5.568E-13

      iter #   5 total cpu time : 25812.5 secs   av.it.:  15.8
      thresh= 7.462E-08 alpha_mix =  0.700 |ddv_scf|^2 =  1.618E-14

      iter #   6 total cpu time : 25892.4 secs   av.it.:  15.7
      thresh= 1.272E-08 alpha_mix =  0.700 |ddv_scf|^2 =  6.439E-16

     End of self-consistent calculation

     Convergence has been achieved 


     Representation #  50 mode #  50

     Self-consistent Calculation

      iter #   1 total cpu time : 25957.1 secs   av.it.:   4.9
      thresh= 1.000E-02 alpha_mix =  0.700 |ddv_scf|^2 =  1.047E-08

      iter #   2 total cpu time : 26037.5 secs   av.it.:  15.8
      thresh= 1.023E-05 alpha_mix =  0.700 |ddv_scf|^2 =  4.561E-09

      iter #   3 total cpu time : 26113.5 secs   av.it.:  14.9
      thresh= 6.754E-06 alpha_mix =  0.700 |ddv_scf|^2 =  1.311E-10

      iter #   4 total cpu time : 26191.2 secs   av.it.:  15.0
      thresh= 1.145E-06 alpha_mix =  0.700 |ddv_scf|^2 =  2.809E-12

      iter #   5 total cpu time : 26270.9 secs   av.it.:  15.6
      thresh= 1.676E-07 alpha_mix =  0.700 |ddv_scf|^2 =  5.034E-13

      iter #   6 total cpu time : 26349.3 secs   av.it.:  15.0
      thresh= 7.095E-08 alpha_mix =  0.700 |ddv_scf|^2 =  1.730E-15

     End of self-consistent calculation

     Convergence has been achieved 


     Representation #  51 mode #  51

     Self-consistent Calculation

      iter #   1 total cpu time : 26425.4 secs   av.it.:   3.1
      thresh= 1.000E-02 alpha_mix =  0.700 |ddv_scf|^2 =  3.274E-09

      iter #   2 total cpu time : 26505.7 secs   av.it.:  15.9
      thresh= 5.722E-06 alpha_mix =  0.700 |ddv_scf|^2 =  2.581E-09

      iter #   3 total cpu time : 26580.8 secs   av.it.:  14.8
      thresh= 5.080E-06 alpha_mix =  0.700 |ddv_scf|^2 =  5.792E-12

      iter #   4 total cpu time : 26661.5 secs   av.it.:  15.9
      thresh= 2.407E-07 alpha_mix =  0.700 |ddv_scf|^2 =  1.093E-12

      iter #   5 total cpu time : 26740.6 secs   av.it.:  15.5
      thresh= 1.046E-07 alpha_mix =  0.700 |ddv_scf|^2 =  5.724E-14

      iter #   6 total cpu time : 26819.8 secs   av.it.:  15.7
      thresh= 2.392E-08 alpha_mix =  0.700 |ddv_scf|^2 =  2.696E-15

     End of self-consistent calculation

     Convergence has been achieved 


     Representation #  52 mode #  52

     Self-consistent Calculation

      iter #   1 total cpu time : 26878.0 secs   av.it.:   3.1
      thresh= 1.000E-02 alpha_mix =  0.700 |ddv_scf|^2 =  2.399E-09

      iter #   2 total cpu time : 26955.2 secs   av.it.:  15.9
      thresh= 4.898E-06 alpha_mix =  0.700 |ddv_scf|^2 =  1.290E-09

      iter #   3 total cpu time : 27030.4 secs   av.it.:  14.9
      thresh= 3.592E-06 alpha_mix =  0.700 |ddv_scf|^2 =  1.394E-11

      iter #   4 total cpu time : 27107.3 secs   av.it.:  15.0
      thresh= 3.734E-07 alpha_mix =  0.700 |ddv_scf|^2 =  1.423E-12

      iter #   5 total cpu time : 27186.6 secs   av.it.:  15.2
      thresh= 1.193E-07 alpha_mix =  0.700 |ddv_scf|^2 =  4.695E-14

      iter #   6 total cpu time : 27266.4 secs   av.it.:  15.1
      thresh= 2.167E-08 alpha_mix =  0.700 |ddv_scf|^2 =  1.265E-15

     End of self-consistent calculation

     Convergence has been achieved 


     Representation #  53 mode #  53

     Self-consistent Calculation

      iter #   1 total cpu time : 27325.6 secs   av.it.:   3.0
      thresh= 1.000E-02 alpha_mix =  0.700 |ddv_scf|^2 =  1.383E-09

      iter #   2 total cpu time : 27407.8 secs   av.it.:  15.9
      thresh= 3.718E-06 alpha_mix =  0.700 |ddv_scf|^2 =  6.103E-10

      iter #   3 total cpu time : 27486.3 secs   av.it.:  15.0
      thresh= 2.470E-06 alpha_mix =  0.700 |ddv_scf|^2 =  9.245E-12

      iter #   4 total cpu time : 27566.2 secs   av.it.:  15.3
      thresh= 3.041E-07 alpha_mix =  0.700 |ddv_scf|^2 =  1.265E-12

      iter #   5 total cpu time : 27644.4 secs   av.it.:  15.0
      thresh= 1.125E-07 alpha_mix =  0.700 |ddv_scf|^2 =  6.075E-14

      iter #   6 total cpu time : 27723.5 secs   av.it.:  15.2
      thresh= 2.465E-08 alpha_mix =  0.700 |ddv_scf|^2 =  1.767E-15

     End of self-consistent calculation

     Convergence has been achieved 


     Representation #  54 mode #  54

     Self-consistent Calculation

      iter #   1 total cpu time : 27782.3 secs   av.it.:   3.0
      thresh= 1.000E-02 alpha_mix =  0.700 |ddv_scf|^2 =  4.505E-09

      iter #   2 total cpu time : 27861.1 secs   av.it.:  15.1
      thresh= 6.712E-06 alpha_mix =  0.700 |ddv_scf|^2 =  3.235E-09

      iter #   3 total cpu time : 27936.1 secs   av.it.:  14.5
      thresh= 5.687E-06 alpha_mix =  0.700 |ddv_scf|^2 =  6.714E-12

      iter #   4 total cpu time : 28015.7 secs   av.it.:  15.6
      thresh= 2.591E-07 alpha_mix =  0.700 |ddv_scf|^2 =  7.579E-13

      iter #   5 total cpu time : 28095.2 secs   av.it.:  15.2
      thresh= 8.706E-08 alpha_mix =  0.700 |ddv_scf|^2 =  2.561E-14

      iter #   6 total cpu time : 28176.3 secs   av.it.:  15.9
      thresh= 1.600E-08 alpha_mix =  0.700 |ddv_scf|^2 =  2.180E-15

     End of self-consistent calculation

     Convergence has been achieved 


     Representation #  55 mode #  55

     Self-consistent Calculation

      iter #   1 total cpu time : 28234.7 secs   av.it.:   3.0
      thresh= 1.000E-02 alpha_mix =  0.700 |ddv_scf|^2 =  7.345E-10

      iter #   2 total cpu time : 28316.5 secs   av.it.:  15.9
      thresh= 2.710E-06 alpha_mix =  0.700 |ddv_scf|^2 =  1.784E-10

      iter #   3 total cpu time : 28396.2 secs   av.it.:  15.3
      thresh= 1.336E-06 alpha_mix =  0.700 |ddv_scf|^2 =  7.193E-12

      iter #   4 total cpu time : 28475.9 secs   av.it.:  15.4
      thresh= 2.682E-07 alpha_mix =  0.700 |ddv_scf|^2 =  1.421E-13

      iter #   5 total cpu time : 28556.6 secs   av.it.:  15.9
      thresh= 3.770E-08 alpha_mix =  0.700 |ddv_scf|^2 =  2.186E-14

      iter #   6 total cpu time : 28634.0 secs   av.it.:  15.0
      thresh= 1.478E-08 alpha_mix =  0.700 |ddv_scf|^2 =  2.015E-15

     End of self-consistent calculation

     Convergence has been achieved 


     Representation #  56 mode #  56

     Self-consistent Calculation

      iter #   1 total cpu time : 28708.0 secs   av.it.:   6.9
      thresh= 1.000E-02 alpha_mix =  0.700 |ddv_scf|^2 =  2.190E-07

      iter #   2 total cpu time : 28786.0 secs   av.it.:  15.0
      thresh= 4.680E-05 alpha_mix =  0.700 |ddv_scf|^2 =  1.773E-07

      iter #   3 total cpu time : 28860.5 secs   av.it.:  14.4
      thresh= 4.211E-05 alpha_mix =  0.700 |ddv_scf|^2 =  1.634E-10

      iter #   4 total cpu time : 28939.9 secs   av.it.:  15.6
      thresh= 1.278E-06 alpha_mix =  0.700 |ddv_scf|^2 =  2.238E-11

      iter #   5 total cpu time : 29018.9 secs   av.it.:  15.4
      thresh= 4.731E-07 alpha_mix =  0.700 |ddv_scf|^2 =  1.266E-12

      iter #   6 total cpu time : 29097.9 secs   av.it.:  15.4
      thresh= 1.125E-07 alpha_mix =  0.700 |ddv_scf|^2 =  2.785E-14

      iter #   7 total cpu time : 29177.6 secs   av.it.:  15.7
      thresh= 1.669E-08 alpha_mix =  0.700 |ddv_scf|^2 =  2.271E-15

     End of self-consistent calculation

     Convergence has been achieved 


     Representation #  57 mode #  57

     Self-consistent Calculation

      iter #   1 total cpu time : 29247.5 secs   av.it.:   5.0
      thresh= 1.000E-02 alpha_mix =  0.700 |ddv_scf|^2 =  3.701E-08

      iter #   2 total cpu time : 29326.2 secs   av.it.:  15.1
      thresh= 1.924E-05 alpha_mix =  0.700 |ddv_scf|^2 =  2.656E-08

      iter #   3 total cpu time : 29401.6 secs   av.it.:  14.6
      thresh= 1.630E-05 alpha_mix =  0.700 |ddv_scf|^2 =  5.747E-11

      iter #   4 total cpu time : 29482.6 secs   av.it.:  15.8
      thresh= 7.581E-07 alpha_mix =  0.700 |ddv_scf|^2 =  5.734E-12

      iter #   5 total cpu time : 29562.8 secs   av.it.:  15.6
      thresh= 2.395E-07 alpha_mix =  0.700 |ddv_scf|^2 =  9.224E-13

      iter #   6 total cpu time : 29642.7 secs   av.it.:  15.3
      thresh= 9.604E-08 alpha_mix =  0.700 |ddv_scf|^2 =  5.406E-15

     End of self-consistent calculation

     Convergence has been achieved 


     Representation #  58 mode #  58

     Self-consistent Calculation

      iter #   1 total cpu time : 29717.3 secs   av.it.:   3.0
      thresh= 1.000E-02 alpha_mix =  0.700 |ddv_scf|^2 =  9.121E-10

      iter #   2 total cpu time : 29794.3 secs   av.it.:  15.5
      thresh= 3.020E-06 alpha_mix =  0.700 |ddv_scf|^2 =  3.841E-10

      iter #   3 total cpu time : 29867.6 secs   av.it.:  14.9
      thresh= 1.960E-06 alpha_mix =  0.700 |ddv_scf|^2 =  1.335E-11

      iter #   4 total cpu time : 29944.1 secs   av.it.:  14.9
      thresh= 3.654E-07 alpha_mix =  0.700 |ddv_scf|^2 =  5.106E-13

      iter #   5 total cpu time : 30022.5 secs   av.it.:  15.2
      thresh= 7.145E-08 alpha_mix =  0.700 |ddv_scf|^2 =  2.640E-14

      iter #   6 total cpu time : 30098.5 secs   av.it.:  15.4
      thresh= 1.625E-08 alpha_mix =  0.700 |ddv_scf|^2 =  1.912E-15

     End of self-consistent calculation

     Convergence has been achieved 


     Representation #  59 mode #  59

     Self-consistent Calculation

      iter #   1 total cpu time : 30156.4 secs   av.it.:   3.0
      thresh= 1.000E-02 alpha_mix =  0.700 |ddv_scf|^2 =  1.582E-09

      iter #   2 total cpu time : 30234.9 secs   av.it.:  15.9
      thresh= 3.978E-06 alpha_mix =  0.700 |ddv_scf|^2 =  7.433E-10

      iter #   3 total cpu time : 30308.4 secs   av.it.:  14.9
      thresh= 2.726E-06 alpha_mix =  0.700 |ddv_scf|^2 =  1.272E-11

      iter #   4 total cpu time : 30386.4 secs   av.it.:  15.0
      thresh= 3.567E-07 alpha_mix =  0.700 |ddv_scf|^2 =  1.328E-12

      iter #   5 total cpu time : 30464.6 secs   av.it.:  15.0
      thresh= 1.152E-07 alpha_mix =  0.700 |ddv_scf|^2 =  4.329E-14

      iter #   6 total cpu time : 30543.4 secs   av.it.:  15.3
      thresh= 2.081E-08 alpha_mix =  0.700 |ddv_scf|^2 =  1.569E-15

     End of self-consistent calculation

     Convergence has been achieved 


     Representation #  60 mode #  60

     Self-consistent Calculation

      iter #   1 total cpu time : 30602.8 secs   av.it.:   3.0
      thresh= 1.000E-02 alpha_mix =  0.700 |ddv_scf|^2 =  2.365E-09

      iter #   2 total cpu time : 30684.6 secs   av.it.:  15.9
      thresh= 4.864E-06 alpha_mix =  0.700 |ddv_scf|^2 =  1.293E-09

      iter #   3 total cpu time : 30762.6 secs   av.it.:  14.9
      thresh= 3.595E-06 alpha_mix =  0.700 |ddv_scf|^2 =  5.848E-12

      iter #   4 total cpu time : 30842.3 secs   av.it.:  15.3
      thresh= 2.418E-07 alpha_mix =  0.700 |ddv_scf|^2 =  1.672E-12

      iter #   5 total cpu time : 30919.9 secs   av.it.:  15.0
      thresh= 1.293E-07 alpha_mix =  0.700 |ddv_scf|^2 =  5.131E-14

      iter #   6 total cpu time : 30999.9 secs   av.it.:  15.5
      thresh= 2.265E-08 alpha_mix =  0.700 |ddv_scf|^2 =  2.216E-15

     End of self-consistent calculation

     Convergence has been achieved 


     Representation #  61 mode #  61

     Self-consistent Calculation

      iter #   1 total cpu time : 31059.6 secs   av.it.:   3.3
      thresh= 1.000E-02 alpha_mix =  0.700 |ddv_scf|^2 =  5.404E-09

      iter #   2 total cpu time : 31139.1 secs   av.it.:  15.2
      thresh= 7.351E-06 alpha_mix =  0.700 |ddv_scf|^2 =  3.501E-09

      iter #   3 total cpu time : 31214.1 secs   av.it.:  14.7
      thresh= 5.917E-06 alpha_mix =  0.700 |ddv_scf|^2 =  1.441E-11

      iter #   4 total cpu time : 31289.5 secs   av.it.:  15.0
      thresh= 3.796E-07 alpha_mix =  0.700 |ddv_scf|^2 =  1.326E-12

      iter #   5 total cpu time : 31365.2 secs   av.it.:  15.2
      thresh= 1.152E-07 alpha_mix =  0.700 |ddv_scf|^2 =  7.161E-14

      iter #   6 total cpu time : 31443.6 secs   av.it.:  15.0
      thresh= 2.676E-08 alpha_mix =  0.700 |ddv_scf|^2 =  1.503E-15

     End of self-consistent calculation

     Convergence has been achieved 


[...]

      iter #   4 total cpu time :893525.1 secs   av.it.:  15.0
      thresh= 7.425E-07 alpha_mix =  0.700 |ddv_scf|^2 =  4.044E-12

      iter #   5 total cpu time :893874.3 secs   av.it.:  15.0
      thresh= 2.011E-07 alpha_mix =  0.700 |ddv_scf|^2 =  2.223E-13

      iter #   6 total cpu time :894230.3 secs   av.it.:  15.0
      thresh= 4.715E-08 alpha_mix =  0.700 |ddv_scf|^2 =  1.765E-14

      iter #   7 total cpu time :894588.9 secs   av.it.:  15.5
      thresh= 1.328E-08 alpha_mix =  0.700 |ddv_scf|^2 =  1.729E-15

     End of self-consistent calculation

     Convergence has been achieved 


     Representation #  64 mode #  64

     Self-consistent Calculation

      iter #   1 total cpu time :894759.4 secs   av.it.:   3.3
      thresh= 1.000E-02 alpha_mix =  0.700 |ddv_scf|^2 =  5.086E-09

      iter #   2 total cpu time :895114.8 secs   av.it.:  15.9
      thresh= 7.132E-06 alpha_mix =  0.700 |ddv_scf|^2 =  4.110E-09

      iter #   3 total cpu time :895457.8 secs   av.it.:  15.0
      thresh= 6.411E-06 alpha_mix =  0.700 |ddv_scf|^2 =  4.533E-11

      iter #   4 total cpu time :895809.9 secs   av.it.:  15.0
      thresh= 6.733E-07 alpha_mix =  0.700 |ddv_scf|^2 =  5.486E-12

      iter #   5 total cpu time :896155.4 secs   av.it.:  15.0
      thresh= 2.342E-07 alpha_mix =  0.700 |ddv_scf|^2 =  2.272E-13

      iter #   6 total cpu time :896503.8 secs   av.it.:  15.2
      thresh= 4.766E-08 alpha_mix =  0.700 |ddv_scf|^2 =  1.964E-14

      iter #   7 total cpu time :896863.3 secs   av.it.:  15.3
      thresh= 1.402E-08 alpha_mix =  0.700 |ddv_scf|^2 =  2.860E-15

     End of self-consistent calculation

     Convergence has been achieved 


     Representation #  65 mode #  65

     Self-consistent Calculation

      iter #   1 total cpu time :897029.7 secs   av.it.:   3.0
      thresh= 1.000E-02 alpha_mix =  0.700 |ddv_scf|^2 =  4.993E-09

      iter #   2 total cpu time :897381.5 secs   av.it.:  15.0
      thresh= 7.066E-06 alpha_mix =  0.700 |ddv_scf|^2 =  5.242E-09

      iter #   3 total cpu time :897712.5 secs   av.it.:  14.0
      thresh= 7.240E-06 alpha_mix =  0.700 |ddv_scf|^2 =  3.801E-11

      iter #   4 total cpu time :898065.4 secs   av.it.:  15.0
      thresh= 6.165E-07 alpha_mix =  0.700 |ddv_scf|^2 =  2.670E-12

      iter #   5 total cpu time :898423.8 secs   av.it.:  15.1
      thresh= 1.634E-07 alpha_mix =  0.700 |ddv_scf|^2 =  1.833E-13

      iter #   6 total cpu time :898779.4 secs   av.it.:  15.0
      thresh= 4.281E-08 alpha_mix =  0.700 |ddv_scf|^2 =  1.282E-14

      iter #   7 total cpu time :899136.4 secs   av.it.:  15.2
      thresh= 1.132E-08 alpha_mix =  0.700 |ddv_scf|^2 =  1.072E-15

     End of self-consistent calculation

     Convergence has been achieved 


     Representation #  66 mode #  66

     Self-consistent Calculation

      iter #   1 total cpu time :899304.4 secs   av.it.:   3.1
      thresh= 1.000E-02 alpha_mix =  0.700 |ddv_scf|^2 =  4.079E-09

      iter #   2 total cpu time :899658.8 secs   av.it.:  15.9
      thresh= 6.387E-06 alpha_mix =  0.700 |ddv_scf|^2 =  2.925E-09

      iter #   3 total cpu time :899996.4 secs   av.it.:  14.9
      thresh= 5.408E-06 alpha_mix =  0.700 |ddv_scf|^2 =  6.602E-11

      iter #   4 total cpu time :900340.0 secs   av.it.:  14.9
      thresh= 8.126E-07 alpha_mix =  0.700 |ddv_scf|^2 =  3.453E-12

      iter #   5 total cpu time :900688.2 secs   av.it.:  15.0
      thresh= 1.858E-07 alpha_mix =  0.700 |ddv_scf|^2 =  1.414E-13

      iter #   6 total cpu time :901041.7 secs   av.it.:  15.6
      thresh= 3.760E-08 alpha_mix =  0.700 |ddv_scf|^2 =  1.547E-14

      iter #   7 total cpu time :901387.7 secs   av.it.:  15.1
      thresh= 1.244E-08 alpha_mix =  0.700 |ddv_scf|^2 =  1.355E-15

     End of self-consistent calculation

     Convergence has been achieved 

     Number of q in the star =    4
     List of q in the star:
          1   0.333333333   0.320710573   0.471524292
          2   0.333333333  -0.320710573  -0.471524292
          3  -0.333333333   0.320710573  -0.471524292
          4  -0.333333333  -0.320710573   0.471524292
     In addition there is the -q list: 
          1  -0.333333333  -0.320710573  -0.471524292
          2  -0.333333333   0.320710573   0.471524292
          3   0.333333333  -0.320710573   0.471524292
          4   0.333333333   0.320710573  -0.471524292

     Diagonalizing the dynamical matrix

     q = (    0.333333333   0.320710573   0.471524292 ) 

 **************************************************************************
     freq (    1) =       1.264003 [THz] =      42.162593 [cm-1]
     freq (    2) =       1.315313 [THz] =      43.874131 [cm-1]
     freq (    3) =       1.939365 [THz] =      64.690263 [cm-1]
     freq (    4) =       2.177669 [THz] =      72.639208 [cm-1]
     freq (    5) =       3.006679 [THz] =     100.292024 [cm-1]
     freq (    6) =       3.115471 [THz] =     103.920930 [cm-1]
     freq (    7) =       5.173139 [THz] =     172.557339 [cm-1]
     freq (    8) =       5.322802 [THz] =     177.549559 [cm-1]
     freq (    9) =       6.194896 [THz] =     206.639478 [cm-1]
     freq (   10) =       6.477438 [THz] =     216.064078 [cm-1]
     freq (   11) =       6.904109 [THz] =     230.296276 [cm-1]
     freq (   12) =       6.923416 [THz] =     230.940315 [cm-1]
     freq (   13) =       7.255420 [THz] =     242.014748 [cm-1]
     freq (   14) =       7.617644 [THz] =     254.097265 [cm-1]
     freq (   15) =       8.076331 [THz] =     269.397390 [cm-1]
     freq (   16) =       8.162097 [THz] =     272.258251 [cm-1]
     freq (   17) =       9.073653 [THz] =     302.664477 [cm-1]
     freq (   18) =       9.154373 [THz] =     305.357022 [cm-1]
     freq (   19) =       9.640055 [THz] =     321.557633 [cm-1]
     freq (   20) =       9.679821 [THz] =     322.884062 [cm-1]
     freq (   21) =      10.293303 [THz] =     343.347638 [cm-1]
     freq (   22) =      10.492603 [THz] =     349.995572 [cm-1]
     freq (   23) =      11.296214 [THz] =     376.801156 [cm-1]
     freq (   24) =      11.316511 [THz] =     377.478186 [cm-1]
     freq (   25) =      11.590970 [THz] =     386.633129 [cm-1]
     freq (   26) =      11.669338 [THz] =     389.247218 [cm-1]
     freq (   27) =      14.166930 [THz] =     472.557911 [cm-1]
     freq (   28) =      14.249785 [THz] =     475.321673 [cm-1]
     freq (   29) =      14.274322 [THz] =     476.140118 [cm-1]
     freq (   30) =      14.379199 [THz] =     479.638452 [cm-1]
     freq (   31) =      30.950346 [THz] =    1032.392408 [cm-1]
     freq (   32) =      30.972915 [THz] =    1033.145251 [cm-1]
     freq (   33) =      31.174284 [THz] =    1039.862186 [cm-1]
     freq (   34) =      31.201959 [THz] =    1040.785324 [cm-1]
     freq (   35) =      32.131091 [THz] =    1071.777819 [cm-1]
     freq (   36) =      32.146555 [THz] =    1072.293640 [cm-1]
     freq (   37) =      32.189282 [THz] =    1073.718877 [cm-1]
     freq (   38) =      32.239959 [THz] =    1075.409268 [cm-1]
     freq (   39) =      32.451243 [THz] =    1082.456958 [cm-1]
     freq (   40) =      32.487364 [THz] =    1083.661830 [cm-1]
     freq (   41) =      32.636281 [THz] =    1088.629168 [cm-1]
     freq (   42) =      32.683948 [THz] =    1090.219151 [cm-1]
     freq (   43) =      35.926433 [THz] =    1198.376813 [cm-1]
     freq (   44) =      35.966281 [THz] =    1199.706012 [cm-1]
     freq (   45) =      36.165537 [THz] =    1206.352479 [cm-1]
     freq (   46) =      36.213284 [THz] =    1207.945128 [cm-1]
     freq (   47) =      36.284395 [THz] =    1210.317126 [cm-1]
     freq (   48) =      36.308392 [THz] =    1211.117581 [cm-1]
     freq (   49) =      36.422261 [THz] =    1214.915857 [cm-1]
     freq (   50) =      36.442785 [THz] =    1215.600454 [cm-1]
     freq (   51) =      68.256185 [THz] =    2276.781266 [cm-1]
     freq (   52) =      68.279193 [THz] =    2277.548722 [cm-1]
     freq (   53) =      68.317100 [THz] =    2278.813171 [cm-1]
     freq (   54) =      68.363290 [THz] =    2280.353887 [cm-1]
     freq (   55) =      70.363179 [THz] =    2347.063027 [cm-1]
     freq (   56) =      70.369028 [THz] =    2347.258119 [cm-1]
     freq (   57) =      70.509038 [THz] =    2351.928360 [cm-1]
     freq (   58) =      70.513709 [THz] =    2352.084143 [cm-1]
     freq (   59) =      71.299402 [THz] =    2378.292037 [cm-1]
     freq (   60) =      71.309802 [THz] =    2378.638971 [cm-1]
     freq (   61) =      71.390011 [THz] =    2381.314430 [cm-1]
     freq (   62) =      71.408802 [THz] =    2381.941251 [cm-1]
     freq (   63) =      71.793742 [THz] =    2394.781474 [cm-1]
     freq (   64) =      71.812177 [THz] =    2395.396380 [cm-1]
     freq (   65) =      71.963970 [THz] =    2400.459641 [cm-1]
     freq (   66) =      71.999541 [THz] =    2401.646160 [cm-1]
 **************************************************************************

     Mode symmetry, C_1 (1)     point group:

     freq (   1-   1) =         42.2  [cm-1]   --> A                  
     freq (   2-   2) =         43.9  [cm-1]   --> A                  
     freq (   3-   3) =         64.7  [cm-1]   --> A                  
     freq (   4-   4) =         72.6  [cm-1]   --> A                  
     freq (   5-   5) =        100.3  [cm-1]   --> A                  
     freq (   6-   6) =        103.9  [cm-1]   --> A                  
     freq (   7-   7) =        172.6  [cm-1]   --> A                  
     freq (   8-   8) =        177.5  [cm-1]   --> A                  
     freq (   9-   9) =        206.6  [cm-1]   --> A                  
     freq (  10-  10) =        216.1  [cm-1]   --> A                  
     freq (  11-  11) =        230.3  [cm-1]   --> A                  
     freq (  12-  12) =        230.9  [cm-1]   --> A                  
     freq (  13-  13) =        242.0  [cm-1]   --> A                  
     freq (  14-  14) =        254.1  [cm-1]   --> A                  
     freq (  15-  15) =        269.4  [cm-1]   --> A                  
     freq (  16-  16) =        272.3  [cm-1]   --> A                  
     freq (  17-  17) =        302.7  [cm-1]   --> A                  
     freq (  18-  18) =        305.4  [cm-1]   --> A                  
     freq (  19-  19) =        321.6  [cm-1]   --> A                  
     freq (  20-  20) =        322.9  [cm-1]   --> A                  
     freq (  21-  21) =        343.3  [cm-1]   --> A                  
     freq (  22-  22) =        350.0  [cm-1]   --> A                  
     freq (  23-  23) =        376.8  [cm-1]   --> A                  
     freq (  24-  24) =        377.5  [cm-1]   --> A                  
     freq (  25-  25) =        386.6  [cm-1]   --> A                  
     freq (  26-  26) =        389.2  [cm-1]   --> A                  
     freq (  27-  27) =        472.6  [cm-1]   --> A                  
     freq (  28-  28) =        475.3  [cm-1]   --> A                  
     freq (  29-  29) =        476.1  [cm-1]   --> A                  
     freq (  30-  30) =        479.6  [cm-1]   --> A                  
     freq (  31-  31) =       1032.4  [cm-1]   --> A                  
     freq (  32-  32) =       1033.1  [cm-1]   --> A                  
     freq (  33-  33) =       1039.9  [cm-1]   --> A                  
     freq (  34-  34) =       1040.8  [cm-1]   --> A                  
     freq (  35-  35) =       1071.8  [cm-1]   --> A                  
     freq (  36-  36) =       1072.3  [cm-1]   --> A                  
     freq (  37-  37) =       1073.7  [cm-1]   --> A                  
     freq (  38-  38) =       1075.4  [cm-1]   --> A                  
     freq (  39-  39) =       1082.5  [cm-1]   --> A                  
     freq (  40-  40) =       1083.7  [cm-1]   --> A                  
     freq (  41-  41) =       1088.6  [cm-1]   --> A                  
     freq (  42-  42) =       1090.2  [cm-1]   --> A                  
     freq (  43-  43) =       1198.4  [cm-1]   --> A                  
     freq (  44-  44) =       1199.7  [cm-1]   --> A                  
     freq (  45-  45) =       1206.4  [cm-1]   --> A                  
     freq (  46-  46) =       1207.9  [cm-1]   --> A                  
     freq (  47-  47) =       1210.3  [cm-1]   --> A                  
     freq (  48-  48) =       1211.1  [cm-1]   --> A                  
     freq (  49-  49) =       1214.9  [cm-1]   --> A                  
     freq (  50-  50) =       1215.6  [cm-1]   --> A                  
     freq (  51-  51) =       2276.8  [cm-1]   --> A                  
     freq (  52-  52) =       2277.5  [cm-1]   --> A                  
     freq (  53-  53) =       2278.8  [cm-1]   --> A                  
     freq (  54-  54) =       2280.4  [cm-1]   --> A                  
     freq (  55-  55) =       2347.1  [cm-1]   --> A                  
     freq (  56-  56) =       2347.3  [cm-1]   --> A                  
     freq (  57-  57) =       2351.9  [cm-1]   --> A                  
     freq (  58-  58) =       2352.1  [cm-1]   --> A                  
     freq (  59-  59) =       2378.3  [cm-1]   --> A                  
     freq (  60-  60) =       2378.6  [cm-1]   --> A                  
     freq (  61-  61) =       2381.3  [cm-1]   --> A                  
     freq (  62-  62) =       2381.9  [cm-1]   --> A                  
     freq (  63-  63) =       2394.8  [cm-1]   --> A                  
     freq (  64-  64) =       2395.4  [cm-1]   --> A                  
     freq (  65-  65) =       2400.5  [cm-1]   --> A                  
     freq (  66-  66) =       2401.6  [cm-1]   --> A                  

     init_run     :      8.09s CPU      8.35s WALL (       7 calls)
     electrons    :   4626.50s CPU   4663.12s WALL (       7 calls)

     Called by init_run:
     wfcinit      :      0.00s CPU      0.00s WALL (       7 calls)
     potinit      :      1.00s CPU      1.10s WALL (       7 calls)
     hinit0       :      0.88s CPU      0.91s WALL (       7 calls)

     Called by electrons:
     c_bands      :   4626.50s CPU   4663.11s WALL (       7 calls)
     v_of_rho     :      0.94s CPU      1.00s WALL (       8 calls)
     newd         :      1.38s CPU      1.42s WALL (       8 calls)

     Called by c_bands:
     init_us_2    :   2064.03s CPU   2256.22s WALL (  445164 calls)
     cegterg      :   4251.44s CPU   4282.24s WALL (    2773 calls)

     Called by *egterg:
     cdiaghg      :    145.29s CPU    146.08s WALL (   32343 calls)
     h_psi        : 473809.05s CPU 478348.20s WALL ( 5598480 calls)
     s_psi        : 195175.81s CPU 196117.46s WALL (11505567 calls)
     g_psi        :     10.81s CPU     10.87s WALL (   30953 calls)

     Called by h_psi:
     h_psi:calbec :  82594.22s CPU  83093.35s WALL ( 5598480 calls)
     vloc_psi     : 294559.50s CPU 298136.01s WALL ( 5598480 calls)
     add_vuspsi   :  94479.78s CPU  94944.08s WALL ( 5598480 calls)

     General routines
     calbec       : 179425.90s CPU 180487.15s WALL (12183086 calls)
     fft          :   1027.02s CPU   1089.53s WALL (  102271 calls)
     ffts         :   3533.67s CPU   3568.98s WALL (   92674 calls)
     fftw         : 288413.50s CPU 292102.90s WALL (******** calls)
     interpolate  :     63.78s CPU     74.05s WALL (    7996 calls)
     davcio       :    820.34s CPU   1303.44s WALL ( 1914580 calls)

     Parallel routines

     PHONON       :  10d 7h51m CPU  10d10h23m WALL

     INITIALIZATION: 
     phq_setup    :      2.96s CPU      3.67s WALL (       8 calls)
     phq_init     :   3922.10s CPU   3959.41s WALL (       8 calls)

     phq_init     :   3922.10s CPU   3959.41s WALL (       8 calls)
     set_drhoc    :      0.09s CPU      0.10s WALL (      24 calls)
     init_vloc    :      0.19s CPU      0.19s WALL (       8 calls)
     init_us_1    :      0.19s CPU      0.22s WALL (       8 calls)
     init_us_2    :   2064.03s CPU   2256.22s WALL (  445164 calls)
     newd         :      1.38s CPU      1.42s WALL (       8 calls)
     dvanqq       :    163.65s CPU    165.64s WALL (       8 calls)
     drho         :   3508.46s CPU   3542.27s WALL (       8 calls)
     drhous       :   3189.39s CPU   3217.35s WALL (       8 calls)
     nldyntot     :     82.95s CPU     83.07s WALL (       8 calls)

     DYNAMICAL MATRIX:
     dynmat0      :    195.85s CPU    196.64s WALL (       8 calls)
     dynmat_us    :    151.25s CPU    151.91s WALL (       8 calls)
     addusdynmat  :      0.02s CPU      0.05s WALL (       8 calls)
     d2ionq       :     42.28s CPU     42.33s WALL (       8 calls)
     dynmatcc     :      2.17s CPU      2.23s WALL (       8 calls)
     phqscf       : 879477.28s CPU 888448.49s WALL (       8 calls)
     dynmatrix    :      0.74s CPU      0.89s WALL (       8 calls)

     phqscf       : 879477.28s CPU 888448.49s WALL (       8 calls)
     solve_linter : 873854.02s CPU 882688.38s WALL (     526 calls)
     sth_kernel   : 847989.82s CPU 855880.52s WALL (    3695 calls)
     h_prec       :    688.28s CPU    694.46s WALL (  342224 calls)
     apply_dpot_b :  18072.82s CPU  18509.42s WALL (  295828 calls)
     ortho        :  14313.02s CPU  14426.63s WALL (  343642 calls)
     cgsolve      : 782067.36s CPU 788298.51s WALL (  343642 calls)
     incdrhoscf   :  29789.35s CPU  30365.51s WALL (  343642 calls)
                                        0.00s GPU  (  343642 calls)
     addusddens   :   1244.71s CPU   1261.39s WALL (    4214 calls)
     dv_of_drho   :    354.54s CPU    387.45s WALL (    3728 calls)
     mix_pot      :     40.59s CPU    108.75s WALL (    3695 calls)
     drhodv       :   4161.14s CPU   4203.57s WALL (     526 calls)
     psymdvscf    :   1486.04s CPU   1540.59s WALL (    1739 calls)
     newdq        :   1487.79s CPU   1500.44s WALL (    3695 calls)
     adddvscf     :    986.95s CPU   1006.28s WALL (  295828 calls)
     drhodvus     :     22.99s CPU     45.21s WALL (     526 calls)

     dvqpsi_us    :  22913.53s CPU  23013.85s WALL (   49434 calls)
                                        0.00s GPU  (   49434 calls)
     dvqpsi_us_on :  16426.72s CPU  16463.31s WALL (   49434 calls)

     add_vuspsi   :  94479.78s CPU  94944.08s WALL ( 5598480 calls)
     addusdbec    :   6464.37s CPU   6503.92s WALL (  391294 calls)

     drhodvus     :     22.99s CPU     45.21s WALL (     526 calls)

      General routines
     calbec       : 179425.90s CPU 180487.15s WALL (12183086 calls)
     fft          :   1027.02s CPU   1089.53s WALL (  102271 calls)
     ffts         :   3533.67s CPU   3568.98s WALL (   92674 calls)
     fftw         : 288413.50s CPU 292102.90s WALL (******** calls)
     davcio       :    820.34s CPU   1303.44s WALL ( 1914580 calls)
     write_rec    :     68.25s CPU    676.05s WALL (    4221 calls)

      Additional routines
     ch_psi       : 772744.15s CPU 778838.93s WALL ( 5563364 calls)
     last         : 203925.41s CPU 205050.79s WALL ( 5563364 calls)
     Hesh         :   1347.78s CPU   1362.58s WALL ( 5563364 calls)
     ch_psi_all_k : 202487.90s CPU 203606.08s WALL ( 5563364 calls)
                                        0.00s GPU  ( 5563364 calls)
     ch_psi_calbe :  80088.00s CPU  80461.35s WALL ( 5563364 calls)
                                        0.00s GPU  ( 5563364 calls)
     h_psi_bgrp   : 473856.15s CPU 478387.84s WALL ( 5598480 calls)
     h_psi        : 473809.05s CPU 478348.20s WALL ( 5598480 calls)
     h_psi:pot    : 471765.74s CPU 476269.96s WALL ( 5598480 calls)
     h_psi:calbec :  82594.22s CPU  83093.35s WALL ( 5598480 calls)
     s_psi_bgrp   : 197512.00s CPU 198424.95s WALL (11505567 calls)
     s_psi        : 195175.81s CPU 196117.46s WALL (11505567 calls)


     PHONON       :  10d 7h51m CPU  10d10h23m WALL


   This run was terminated on:  22:43:57  22Jul2024            

=------------------------------------------------------------------------------=
   JOB DONE.
=------------------------------------------------------------------------------=
