
     Program PWSCF v.7.3.1 starts on 12Jul2024 at 12:17:12 

     This program is part of the open-source Quantum ESPRESSO suite
     for quantum simulation of materials; please cite
         "P. Giannozzi et al., J. Phys.:Condens. Matter 21 395502 (2009);
         "P. Giannozzi et al., J. Phys.:Condens. Matter 29 465901 (2017);
         "P. Giannozzi et al., J. Chem. Phys. 152 154105 (2020);
          URL http://www.quantum-espresso.org", 
     in publications or presentations arising from this work. More details at
     http://www.quantum-espresso.org/quote

     Parallel version (MPI), running on    24 processors

     MPI processes distributed on     1 nodes
     94595 MiB available memory on the printing compute node when the environment starts

     Waiting for input...
     Reading input from standard input

     Current dimensions of program PWSCF are:
     Max number of different atomic species (ntypx) = 10
     Max number of k-points (npk) =  40000
     Max angular momentum in pseudopotentials (lmaxx) =  4

     R & G space division:  proc/nbgrp/npool/nimage =      24
     Subspace diagonalization in iterative solution of the eigenvalue problem:
     a serial algorithm will be used


     Parallelization info
     --------------------
     sticks:   dense  smooth     PW     G-vecs:    dense   smooth      PW
     Min         416     208     56                21698     7668    1078
     Max         417     209     57                21701     7671    1081
     Sum        9993    5003   1355               520787   184049   25907

     Using Slab Decomposition


     Title: 
     pre-ph                                                                     


     bravais-lattice index     =            8
     lattice parameter (alat)  =      12.2864  a.u.
     unit-cell volume          =    1362.7566 (a.u.)^3
     number of atoms/cell      =           22
     number of atomic types    =            3
     number of electrons       =        48.00
     number of Kohn-Sham states=           24
     kinetic-energy cutoff     =     100.0000  Ry
     charge density cutoff     =     800.0000  Ry
     scf convergence threshold =      1.0E-10
     mixing beta               =       0.7000
     number of iterations used =            8  plain     mixing
     Exchange-correlation= PBESOL
                           (   1   4  10   8   0   0   0)

     celldm(1)=  12.286440  celldm(2)=   1.039359  celldm(3)=   0.706927
     celldm(4)=   0.000000  celldm(5)=   0.000000  celldm(6)=   0.000000

     crystal axes: (cart. coord. in units of alat)
               a(1) = (   1.000000   0.000000   0.000000 )  
               a(2) = (   0.000000   1.039359   0.000000 )  
               a(3) = (   0.000000   0.000000   0.706927 )  

     reciprocal axes: (cart. coord. in units 2 pi/alat)
               b(1) = (  1.000000  0.000000  0.000000 )  
               b(2) = (  0.000000  0.962132  0.000000 )  
               b(3) = (  0.000000  0.000000  1.414573 )  


     PseudoPot. # 1 for B  read from file:
     /home/mehlhorn/pseudos/b_pbesol_v1.4.uspp.F.UPF
     MD5 check sum: 369b69bef2c3aeed4453bd8b804fd6a8
     Pseudo is Ultrasoft + core correction, Zval =  3.0
     Generated by new atomic code, or converted to UPF format
     Using radial grid of  781 points,  4 beta functions with: 
                l(1) =   0
                l(2) =   0
                l(3) =   1
                l(4) =   1
     Q(r) pseudized with  8 coefficients,  rinner =    1.100   1.100   1.100


     PseudoPot. # 2 for Ba read from file:
     /home/mehlhorn/pseudos/Ba.nc.z_10.oncvpsp4.dojo.v4-sp.upf
     MD5 check sum: c10ed334bb677c0554edec7181ce9143
     Pseudo is Norm-conserving + core correction, Zval = 10.0
     Generated using ONCVPSP code by D. R. Hamann
     Using radial grid of 1938 points,  8 beta functions with: 
                l(1) =   0
                l(2) =   0
                l(3) =   1
                l(4) =   1
                l(5) =   2
                l(6) =   2
                l(7) =   3
                l(8) =   3

     PseudoPot. # 3 for H  read from file:
     /home/mehlhorn/pseudos/H_ONCV_PBEsol-1.0.upf
     MD5 check sum: 398ef8f67c0a7342c05c87c5e19ea467
     Pseudo is Norm-conserving, Zval =  1.0
     Generated using ONCVPSP code by D. R. Hamann
     Using radial grid of 1180 points,  2 beta functions with: 
                l(1) =   0
                l(2) =   0

     atomic species   valence    mass     pseudopotential
     B                 3.00    10.81100     B ( 1.00)
     Ba               10.00   137.32700     Ba( 1.00)
     H                 1.00     1.00794     H ( 1.00)

      4 Sym. Ops. (no inversion) found ( 2 have fractional translation)



   Cartesian axes

     site n.     atom                  positions (alat units)
         1        Ba     tau(   1) = (   0.5000000   0.5196794   0.3534654  )
         2        Ba     tau(   2) = (   0.0000000   0.0000000   0.7069253  )
         3        B      tau(   3) = (   0.6040144   0.2445924  -0.0000008  )
         4        B      tau(   4) = (   0.3959856   0.7947663  -0.0000008  )
         5        B      tau(   5) = (   0.1040144   0.2750870   0.3534644  )
         6        B      tau(   6) = (   0.8959856   0.7642718   0.3534644  )
         7        H      tau(   7) = (   0.4248857   0.3050761  -0.0000064  )
         8        H      tau(   8) = (   0.5751143   0.7342827  -0.0000064  )
         9        H      tau(   9) = (   0.9248857   0.2146033   0.3534700  )
        10        H      tau(  10) = (   0.0751143   0.8247554   0.3534700  )
        11        H      tau(  11) = (   0.7229357   0.3934880   0.0000134  )
        12        H      tau(  12) = (   0.2770643   0.6458708   0.0000134  )
        13        H      tau(  13) = (   0.2229357   0.1261914   0.3534502  )
        14        H      tau(  14) = (   0.7770643   0.9131673   0.3534502  )
        15        H      tau(  15) = (   0.6313936   0.1417852   0.5509491  )
        16        H      tau(  16) = (   0.3686064   0.8975735   0.5509491  )
        17        H      tau(  17) = (   0.1313936   0.3778941   0.5094416  )
        18        H      tau(  18) = (   0.8686064   0.6614646   0.5094416  )
        19        H      tau(  19) = (   0.3686258   0.8975692   0.1559806  )
        20        H      tau(  20) = (   0.6313742   0.1417895   0.1559806  )
        21        H      tau(  21) = (   0.8686258   0.6614689   0.1974830  )
        22        H      tau(  22) = (   0.1313742   0.3778899   0.1974830  )

     number of k points=    27
                       cart. coord. in units 2pi/alat
        k(    1) = (   0.0000000   0.0000000   0.0000000), wk =   0.0160000
        k(    2) = (   0.0000000   0.0000000   0.2829146), wk =   0.0320000
        k(    3) = (   0.0000000   0.0000000   0.5658292), wk =   0.0320000
        k(    4) = (   0.0000000   0.1924263   0.0000000), wk =   0.0320000
        k(    5) = (   0.0000000   0.1924263   0.2829146), wk =   0.0640000
        k(    6) = (   0.0000000   0.1924263   0.5658292), wk =   0.0640000
        k(    7) = (   0.0000000   0.3848527   0.0000000), wk =   0.0320000
        k(    8) = (   0.0000000   0.3848527   0.2829146), wk =   0.0640000
        k(    9) = (   0.0000000   0.3848527   0.5658292), wk =   0.0640000
        k(   10) = (   0.2000000   0.0000000   0.0000000), wk =   0.0320000
        k(   11) = (   0.2000000   0.0000000   0.2829146), wk =   0.0640000
        k(   12) = (   0.2000000   0.0000000   0.5658292), wk =   0.0640000
        k(   13) = (   0.2000000   0.1924263   0.0000000), wk =   0.0640000
        k(   14) = (   0.2000000   0.1924263   0.2829146), wk =   0.1280000
        k(   15) = (   0.2000000   0.1924263   0.5658292), wk =   0.1280000
        k(   16) = (   0.2000000   0.3848527   0.0000000), wk =   0.0640000
        k(   17) = (   0.2000000   0.3848527   0.2829146), wk =   0.1280000
        k(   18) = (   0.2000000   0.3848527   0.5658292), wk =   0.1280000
        k(   19) = (   0.4000000   0.0000000   0.0000000), wk =   0.0320000
        k(   20) = (   0.4000000   0.0000000   0.2829146), wk =   0.0640000
        k(   21) = (   0.4000000   0.0000000   0.5658292), wk =   0.0640000
        k(   22) = (   0.4000000   0.1924263   0.0000000), wk =   0.0640000
        k(   23) = (   0.4000000   0.1924263   0.2829146), wk =   0.1280000
        k(   24) = (   0.4000000   0.1924263   0.5658292), wk =   0.1280000
        k(   25) = (   0.4000000   0.3848527   0.0000000), wk =   0.0640000
        k(   26) = (   0.4000000   0.3848527   0.2829146), wk =   0.1280000
        k(   27) = (   0.4000000   0.3848527   0.5658292), wk =   0.1280000

     Dense  grid:   520787 G-vectors     FFT dimensions: ( 120, 120,  80)

     Smooth grid:   184049 G-vectors     FFT dimensions: (  80,  90,  60)

     Estimated max dynamical RAM per process >      64.41 MB

     Estimated total dynamical RAM >       1.51 GB

     Initial potential from superposition of free atoms

     starting charge      47.9682, renormalised to      48.0000
     Starting wfcs are   42 randomized atomic wfcs

     total cpu time spent up to now is       11.6 secs

     Self-consistent Calculation

     iteration #  1     ecut=   100.00 Ry     beta= 0.70
     Davidson diagonalization with overlap
     ethr =  1.00E-02,  avg # of iterations =  2.0

     total cpu time spent up to now is       26.4 secs

     total energy              =    -155.93547057 Ry
     estimated scf accuracy    <       2.04835269 Ry

     iteration #  2     ecut=   100.00 Ry     beta= 0.70
     Davidson diagonalization with overlap
     ethr =  4.27E-03,  avg # of iterations =  2.0

     total cpu time spent up to now is       40.8 secs

     total energy              =    -156.40914841 Ry
     estimated scf accuracy    <       0.36046205 Ry

     iteration #  3     ecut=   100.00 Ry     beta= 0.70
     Davidson diagonalization with overlap
     ethr =  7.51E-04,  avg # of iterations =  2.0

     total cpu time spent up to now is       55.0 secs

     total energy              =    -156.46908719 Ry
     estimated scf accuracy    <       0.00483253 Ry

     iteration #  4     ecut=   100.00 Ry     beta= 0.70
     Davidson diagonalization with overlap
     ethr =  1.01E-05,  avg # of iterations =  5.2

     total cpu time spent up to now is       75.9 secs

     total energy              =    -156.47226763 Ry
     estimated scf accuracy    <       0.00162054 Ry

     iteration #  5     ecut=   100.00 Ry     beta= 0.70
     Davidson diagonalization with overlap
     ethr =  3.38E-06,  avg # of iterations =  3.3

     total cpu time spent up to now is       90.8 secs

     total energy              =    -156.47283377 Ry
     estimated scf accuracy    <       0.00016390 Ry

     iteration #  6     ecut=   100.00 Ry     beta= 0.70
     Davidson diagonalization with overlap
     ethr =  3.41E-07,  avg # of iterations =  4.2

     total cpu time spent up to now is      107.3 secs

     total energy              =    -156.47289449 Ry
     estimated scf accuracy    <       0.00000151 Ry

     iteration #  7     ecut=   100.00 Ry     beta= 0.70
     Davidson diagonalization with overlap
     ethr =  3.15E-09,  avg # of iterations =  8.5

     total cpu time spent up to now is      138.8 secs

     total energy              =    -156.47290408 Ry
     estimated scf accuracy    <       0.00000106 Ry

     iteration #  8     ecut=   100.00 Ry     beta= 0.70
     Davidson diagonalization with overlap
     ethr =  2.21E-09,  avg # of iterations =  2.4

     total cpu time spent up to now is      153.2 secs

     total energy              =    -156.47290437 Ry
     estimated scf accuracy    <       0.00000006 Ry

     iteration #  9     ecut=   100.00 Ry     beta= 0.70
     Davidson diagonalization with overlap
     ethr =  1.19E-10,  avg # of iterations =  4.8

     total cpu time spent up to now is      170.3 secs

     total energy              =    -156.47290439 Ry
     estimated scf accuracy    <          3.9E-09 Ry

     iteration # 10     ecut=   100.00 Ry     beta= 0.70
     Davidson diagonalization with overlap
     ethr =  8.16E-12,  avg # of iterations =  4.7

     total cpu time spent up to now is      188.6 secs

     total energy              =    -156.47290439 Ry
     estimated scf accuracy    <          1.2E-09 Ry

     iteration # 11     ecut=   100.00 Ry     beta= 0.70
     Davidson diagonalization with overlap
     ethr =  2.58E-12,  avg # of iterations =  2.6

     total cpu time spent up to now is      203.0 secs

     End of self-consistent calculation

          k = 0.0000 0.0000 0.0000 ( 23017 PWs)   bands (ev):

   -23.3141 -23.3015  -8.9678  -8.8460  -8.6060  -8.5613  -8.5439  -8.4611
    -5.7709  -4.7206  -3.8843  -3.7083  -1.4866  -0.5295  -0.3966  -0.0672
     0.3845   0.4010   0.4753   0.6393   0.6921   1.2317   1.2335   1.2769

          k = 0.0000 0.0000 0.2829 ( 23018 PWs)   bands (ev):

   -23.3076 -23.2974  -8.8913  -8.7947  -8.7549  -8.7142  -8.5904  -8.5606
    -5.3783  -4.5087  -4.0245  -3.8979  -1.1919  -0.6771  -0.3612  -0.0837
    -0.0265   0.1068   0.4378   0.6914   1.0627   1.0733   1.1325   1.3162

          k = 0.0000 0.0000 0.5658 ( 23020 PWs)   bands (ev):

   -23.2958 -23.2919  -9.0488  -9.0419  -8.7306  -8.6925  -8.5895  -8.5801
    -4.6776  -4.3144  -4.2487  -4.2108  -0.9343  -0.8112  -0.6132  -0.5848
     0.0541   0.2140   0.5347   0.6174   0.9943   1.0830   1.2003   1.2528

          k = 0.0000 0.1924 0.0000 ( 23025 PWs)   bands (ev):

   -23.3129 -23.3027  -8.9453  -8.8210  -8.6568  -8.5906  -8.5358  -8.4688
    -5.6153  -4.6383  -4.1288  -3.8202  -1.1941  -0.5856  -0.5470   0.1967
     0.2715   0.2826   0.6178   0.7699   0.8138   0.9926   1.1672   1.2157

          k = 0.0000 0.1924 0.2829 ( 23026 PWs)   bands (ev):

   -23.3066 -23.2983  -8.8915  -8.7833  -8.7412  -8.7295  -8.5922  -8.5818
    -5.2717  -4.4878  -4.1551  -3.9605  -1.0090  -0.7104  -0.5230   0.1053
     0.1172   0.2044   0.2363   0.8101   1.0026   1.0716   1.0904   1.1850

          k = 0.0000 0.1924 0.5658 ( 23025 PWs)   bands (ev):

   -23.2954 -23.2922  -9.0639  -9.0568  -8.7002  -8.6765  -8.5891  -8.5877
    -4.7864  -4.6007  -4.0699  -3.9853  -0.8583  -0.8408  -0.7109  -0.4936
     0.2059   0.3253   0.4674   0.6337   0.9116   1.0479   1.0857   1.2215

          k = 0.0000 0.3849 0.0000 ( 22996 PWs)   bands (ev):

   -23.3097 -23.3058  -8.8772  -8.7738  -8.7483  -8.6647  -8.5147  -8.4891
    -5.2067  -4.6742  -4.3863  -4.0912  -0.7223  -0.6760  -0.4527   0.1614
     0.1666   0.3110   0.5997   0.8545   0.9116   0.9316   1.0007   1.1271

          k = 0.0000 0.3849 0.2829 ( 23012 PWs)   bands (ev):

   -23.3040 -23.3009  -8.8737  -8.8251  -8.7144  -8.6838  -8.6290  -8.6146
    -4.9878  -4.6314  -4.2444  -4.1070  -0.7375  -0.6981  -0.5601  -0.1264
     0.3148   0.4076   0.4744   0.6926   0.8422   0.9037   1.1076   1.1134

          k = 0.0000 0.3849 0.5658 ( 23036 PWs)   bands (ev):

   -23.2944 -23.2932  -9.0834  -9.0800  -8.6454  -8.6453  -8.6065  -8.5984
    -4.8848  -4.8244  -3.8833  -3.8362  -0.9247  -0.9039  -0.5068  -0.2990
     0.2869   0.3373   0.5042   0.6090   0.8235   0.8554   1.0565   1.1455

          k = 0.2000 0.0000 0.0000 ( 23035 PWs)   bands (ev):

   -23.3129 -23.3027  -8.9356  -8.8360  -8.6435  -8.6111  -8.5358  -8.4687
    -5.6168  -4.7196  -3.9191  -3.8458  -1.3515  -0.3532  -0.2964  -0.2595
     0.3734   0.4509   0.5551   0.6238   0.7108   0.8583   1.2375   1.2423

          k = 0.2000 0.0000 0.2829 ( 23016 PWs)   bands (ev):

   -23.3066 -23.2983  -8.8694  -8.8335  -8.7429  -8.7058  -8.6158  -8.5659
    -5.2481  -4.4886  -4.0570  -4.0139  -1.0946  -0.7358  -0.3414  -0.1671
    -0.0179   0.2333   0.5642   0.7366   0.8135   1.0101   1.2259   1.2706

          k = 0.2000 0.0000 0.5658 ( 23026 PWs)   bands (ev):

   -23.2954 -23.2922  -9.0684  -9.0624  -8.7107  -8.6711  -8.5967  -8.5811
    -4.6258  -4.3734  -4.2427  -4.1606  -1.2503  -1.0367  -0.5403  -0.2259
     0.1049   0.4551   0.4996   0.7559   0.9172   1.0306   1.1363   1.2347

          k = 0.2000 0.1924 0.0000 ( 23032 PWs)   bands (ev):

   -23.3119 -23.3036  -8.9506  -8.7798  -8.7419  -8.5707  -8.5291  -8.4748
    -5.4941  -4.6534  -4.1676  -3.8845  -1.0980  -0.5349  -0.3995   0.0647
     0.2332   0.2915   0.7398   0.7448   0.8316   0.8497   1.0004   1.1991

          k = 0.2000 0.1924 0.2829 ( 23008 PWs)   bands (ev):

   -23.3058 -23.2991  -8.8825  -8.8205  -8.7673  -8.6815  -8.6244  -8.5655
    -5.1568  -4.4540  -4.2213  -4.0274  -0.9665  -0.7193  -0.5150  -0.0203
     0.1120   0.2767   0.4718   0.7378   0.8646   0.9778   1.1301   1.2333

          k = 0.2000 0.1924 0.5658 ( 23031 PWs)   bands (ev):

   -23.2951 -23.2925  -9.0813  -9.0498  -8.7270  -8.6408  -8.6047  -8.5857
    -4.7401  -4.5039  -4.1753  -3.9713  -1.2003  -1.0287  -0.4818  -0.2429
     0.1686   0.3904   0.5412   0.7221   0.9061   1.0043   1.0816   1.2142

          k = 0.2000 0.3849 0.0000 ( 22982 PWs)   bands (ev):

   -23.3093 -23.3062  -8.9341  -8.8590  -8.6802  -8.5967  -8.5118  -8.4911
    -5.1613  -4.7290  -4.3449  -4.1016  -0.6385  -0.6208  -0.3869   0.1225
     0.1448   0.2696   0.4943   0.8733   0.9290   0.9568   0.9701   1.0059

          k = 0.2000 0.3849 0.2829 ( 22993 PWs)   bands (ev):

   -23.3037 -23.3011  -8.8840  -8.8516  -8.7426  -8.6865  -8.6130  -8.5775
    -4.9102  -4.5848  -4.2934  -4.1487  -0.8264  -0.7150  -0.4421  -0.0968
     0.3374   0.3693   0.4842   0.6890   0.7713   0.9104   1.0996   1.1354

          k = 0.2000 0.3849 0.5658 ( 23027 PWs)   bands (ev):

   -23.2943 -23.2933  -9.0778  -9.0589  -8.7066  -8.6567  -8.5991  -8.5883
    -4.8068  -4.7198  -3.9646  -3.8799  -1.1048  -1.0387  -0.3463  -0.2295
     0.2067   0.3444   0.5116   0.6587   0.9044   0.9873   1.0362   1.1346

          k = 0.4000 0.0000 0.0000 ( 23009 PWs)   bands (ev):

   -23.3097 -23.3058  -8.8496  -8.7960  -8.7376  -8.7124  -8.5146  -8.4890
    -5.2409  -4.8586  -4.0201  -3.9978  -1.0142  -0.6155  -0.1445   0.2305
     0.2968   0.3878   0.4497   0.5512   0.6579   0.7163   1.0288   1.1375

          k = 0.4000 0.0000 0.2829 ( 23014 PWs)   bands (ev):

   -23.3040 -23.3008  -8.8548  -8.8429  -8.7592  -8.6936  -8.6345  -8.5908
    -4.9202  -4.5726  -4.1765  -4.1339  -0.9158  -0.6875  -0.5698  -0.1724
     0.1740   0.4447   0.4644   0.5486   0.8400   0.9625   1.2117   1.2263

          k = 0.4000 0.0000 0.5658 ( 23014 PWs)   bands (ev):

   -23.2944 -23.2931  -9.0960  -9.0934  -8.6704  -8.6433  -8.6080  -8.5905
    -4.5310  -4.4544  -4.1963  -4.1381  -1.4636  -1.3762  -0.2012   0.0131
     0.2249   0.3663   0.5865   0.6727   1.0105   1.0359   1.1281   1.2229

          k = 0.4000 0.1924 0.0000 ( 22998 PWs)   bands (ev):

   -23.3093 -23.3061  -8.9309  -8.8573  -8.6930  -8.6083  -8.5118  -8.4910
    -5.1875  -4.8399  -4.1450  -4.0167  -0.8524  -0.6011  -0.0579   0.1114
     0.2177   0.2500   0.3787   0.6421   0.7811   0.8400   0.9816   1.1049

          k = 0.4000 0.1924 0.2829 ( 23003 PWs)   bands (ev):

   -23.3037 -23.3011  -8.8798  -8.8583  -8.7581  -8.6974  -8.6094  -8.5739
    -4.8675  -4.5436  -4.2684  -4.1537  -0.8964  -0.7251  -0.4912  -0.1138
     0.1703   0.4060   0.5266   0.6678   0.7785   0.9294   1.1345   1.1981

          k = 0.4000 0.1924 0.5658 ( 23005 PWs)   bands (ev):

   -23.2942 -23.2932  -9.0862  -9.0678  -8.7108  -8.6614  -8.5986  -8.5886
    -4.6007  -4.4270  -4.2248  -4.0508  -1.3949  -1.3238  -0.2012  -0.0715
     0.2196   0.3299   0.5803   0.7479   0.9477   1.0397   1.1245   1.2149

          k = 0.4000 0.3849 0.0000 ( 23021 PWs)   bands (ev):

   -23.3083 -23.3071  -8.9780  -8.9517  -8.5924  -8.5576  -8.5047  -8.4968
    -5.0392  -4.8752  -4.2387  -4.1450  -0.5284  -0.5076  -0.1804   0.0821
     0.0836   0.0941   0.4576   0.7000   0.8648   0.9171   0.9797   1.0023

          k = 0.4000 0.3849 0.2829 ( 22994 PWs)   bands (ev):

   -23.3028 -23.3019  -8.9044  -8.8943  -8.7382  -8.7131  -8.5710  -8.5573
    -4.7255  -4.5564  -4.3480  -4.2499  -0.8451  -0.7705  -0.3643  -0.2024
     0.3738   0.5337   0.5788   0.6961   0.7311   0.8944   0.9861   1.0615

          k = 0.4000 0.3849 0.5658 ( 23011 PWs)   bands (ev):

   -23.2939 -23.2935  -9.0518  -9.0372  -8.7471  -8.7184  -8.5896  -8.5885
    -4.6152  -4.5398  -4.0988  -4.0217  -1.2455  -1.2163  -0.3493  -0.3319
     0.3746   0.5219   0.6687   0.7172   0.8863   0.9184   1.0992   1.1477

     highest occupied level (ev):     1.3162

!    total energy              =    -156.47290439 Ry
     estimated scf accuracy    <          5.7E-11 Ry

     The total energy is the sum of the following terms:
     one-electron contribution =     -17.01224211 Ry
     hartree contribution      =      23.74593118 Ry
     xc contribution           =     -49.23326450 Ry
     ewald contribution        =    -113.97332896 Ry

     convergence has been achieved in  11 iterations

     Writing all to output data dir ./pwscf.save/ :
     XML data file, charge density, pseudopotentials, collected wavefunctions

     init_run     :      9.38s CPU     11.10s WALL (       1 calls)
     electrons    :    189.92s CPU    191.50s WALL (       1 calls)

     Called by init_run:
     wfcinit      :      6.90s CPU      6.99s WALL (       1 calls)
     potinit      :      0.69s CPU      1.34s WALL (       1 calls)
     hinit0       :      0.97s CPU      1.88s WALL (       1 calls)

     Called by electrons:
     c_bands      :    168.29s CPU    169.49s WALL (      11 calls)
     sum_band     :     18.07s CPU     18.31s WALL (      11 calls)
     v_of_rho     :      1.49s CPU      1.55s WALL (      12 calls)
     newd         :      1.98s CPU      2.01s WALL (      12 calls)
     mix_rho      :      0.19s CPU      0.22s WALL (      11 calls)

     Called by c_bands:
     init_us_2    :      3.32s CPU      3.38s WALL (     621 calls)
     cegterg      :    150.52s CPU    151.65s WALL (     297 calls)

     Called by *egterg:
     cdiaghg      :      2.75s CPU      2.77s WALL (    1420 calls)
     h_psi        :    109.35s CPU    110.36s WALL (    1447 calls)
     s_psi        :     19.94s CPU     20.02s WALL (    1447 calls)
     g_psi        :      0.27s CPU      0.27s WALL (    1123 calls)

     Called by h_psi:
     h_psi:calbec :     18.03s CPU     18.13s WALL (    1447 calls)
     vloc_psi     :     70.75s CPU     71.58s WALL (    1447 calls)
     add_vuspsi   :     20.26s CPU     20.34s WALL (    1447 calls)

     General routines
     calbec       :     22.94s CPU     23.07s WALL (    1744 calls)
     fft          :      1.68s CPU      2.65s WALL (     154 calls)
     ffts         :      0.59s CPU      1.22s WALL (      23 calls)
     fftw         :     70.70s CPU     71.48s WALL (   57106 calls)
     interpolate  :      0.63s CPU      1.27s WALL (      12 calls)

     Parallel routines

     PWSCF        :   3m20.17s CPU   3m24.19s WALL


   This run was terminated on:  12:20:37  12Jul2024            

=------------------------------------------------------------------------------=
   JOB DONE.
=------------------------------------------------------------------------------=
