
     Program Q2R v.7.3.1 starts on 22Jul2024 at 22:43:58 

     This program is part of the open-source Quantum ESPRESSO suite
     for quantum simulation of materials; please cite
         "P. Giannozzi et al., J. Phys.:Condens. Matter 21 395502 (2009);
         "P. Giannozzi et al., J. Phys.:Condens. Matter 29 465901 (2017);
         "P. Giannozzi et al., J. Chem. Phys. 152 154105 (2020);
          URL http://www.quantum-espresso.org", 
     in publications or presentations arising from this work. More details at
     http://www.quantum-espresso.org/quote

     Parallel version (MPI), running on    24 processors

     MPI processes distributed on     1 nodes
     R & G space division:  proc/nbgrp/npool/nimage =      24
     72118 MiB available memory on the printing compute node when the environment starts


  reading grid info from file dyn0    

  reading force constants from file dyn1
 macroscopic fields = T
   3.23820   0.00000   0.00000
   0.00000   3.30226   0.00000
   0.00000   0.00000   3.41919
  na=            1
   2.52595  -0.03693   0.00000
   0.28751   2.54236   0.00000
   0.00000   0.00000   2.95273
  na=            2
   2.52595   0.03693   0.00000
  -0.28751   2.54236   0.00000
   0.00000   0.00000   2.95273
  na=            3
  -0.15305   0.03205  -0.00002
   0.17457  -0.05367   0.00005
   0.00001   0.00003  -0.20364
  na=            4
  -0.15305   0.03205   0.00002
   0.17457  -0.05367  -0.00005
  -0.00001  -0.00003  -0.20364
  na=            5
  -0.15305  -0.03205   0.00002
  -0.17457  -0.05367   0.00005
  -0.00001   0.00003  -0.20364
  na=            6
  -0.15305  -0.03205  -0.00002
  -0.17457  -0.05367  -0.00005
   0.00001  -0.00003  -0.20364
  na=            7
  -0.42021   0.12991  -0.00000
   0.13807  -0.25606   0.00000
  -0.00002   0.00001  -0.24502
  na=            8
  -0.42021   0.12991   0.00000
   0.13807  -0.25606  -0.00000
   0.00002  -0.00001  -0.24502
  na=            9
  -0.42021  -0.12991   0.00000
  -0.13807  -0.25606   0.00000
   0.00002   0.00001  -0.24502
  na=           10
  -0.42021  -0.12991  -0.00000
  -0.13807  -0.25606  -0.00000
  -0.00002  -0.00001  -0.24502
  na=           11
  -0.28291  -0.04744   0.00001
  -0.11319  -0.42761  -0.00004
   0.00001  -0.00003  -0.24520
  na=           12
  -0.28291  -0.04744  -0.00001
  -0.11319  -0.42761   0.00004
  -0.00001   0.00003  -0.24520
  na=           13
  -0.28291   0.04744  -0.00001
   0.11319  -0.42761  -0.00004
  -0.00001  -0.00003  -0.24520
  na=           14
  -0.28291   0.04744   0.00001
   0.11319  -0.42761   0.00004
   0.00001   0.00003  -0.24520
  na=           15
  -0.20358   0.14365   0.05612
   0.09411  -0.26642  -0.08842
   0.01637  -0.10791  -0.39104
  na=           16
  -0.20358   0.14365  -0.05612
   0.09411  -0.26642   0.08842
  -0.01637   0.10791  -0.39104
  na=           17
  -0.20358  -0.14365  -0.05612
  -0.09411  -0.26642  -0.08842
  -0.01637  -0.10791  -0.39104
  na=           18
  -0.20358  -0.14365   0.05612
  -0.09411  -0.26642   0.08842
   0.01637   0.10791  -0.39104
  na=           19
  -0.20354   0.14363   0.05609
   0.09408  -0.26643  -0.08842
   0.01635  -0.10790  -0.39110
  na=           20
  -0.20354   0.14363  -0.05609
   0.09408  -0.26643   0.08842
  -0.01635   0.10790  -0.39110
  na=           21
  -0.20354  -0.14363  -0.05609
  -0.09408  -0.26643  -0.08842
  -0.01635  -0.10790  -0.39110
  na=           22
  -0.20354  -0.14363   0.05609
  -0.09408  -0.26643   0.08842
   0.01635   0.10790  -0.39110
  Norm of the difference between old and new effective charges:    0.00094660545865454760
  nqs=            1
 q=   0.00000000  0.00000000  0.00000000
  reading force constants from file dyn2
  nqs=            2
 q=   0.00000000  0.00000000  0.47152429
 q=   0.00000000  0.00000000 -0.47152429
  reading force constants from file dyn3
  nqs=            2
 q=   0.00000000  0.32071057  0.00000000
 q=   0.00000000 -0.32071057  0.00000000
  reading force constants from file dyn4
  nqs=            4
 q=   0.00000000  0.32071057  0.47152429
 q=   0.00000000  0.32071057 -0.47152429
 q=   0.00000000 -0.32071057 -0.47152429
 q=   0.00000000 -0.32071057  0.47152429
  reading force constants from file dyn5
  nqs=            2
 q=   0.33333333  0.00000000  0.00000000
 q=  -0.33333333  0.00000000  0.00000000
  reading force constants from file dyn6
  nqs=            4
 q=   0.33333333  0.00000000  0.47152429
 q=   0.33333333  0.00000000 -0.47152429
 q=  -0.33333333  0.00000000 -0.47152429
 q=  -0.33333333  0.00000000  0.47152429
  reading force constants from file dyn7
  nqs=            4
 q=   0.33333333  0.32071057  0.00000000
 q=   0.33333333 -0.32071057  0.00000000
 q=  -0.33333333  0.32071057  0.00000000
 q=  -0.33333333 -0.32071057  0.00000000
  reading force constants from file dyn8
  nqs=            8
 q=   0.33333333  0.32071057  0.47152429
 q=  -0.33333333 -0.32071057 -0.47152429
 q=   0.33333333 -0.32071057 -0.47152429
 q=  -0.33333333  0.32071057  0.47152429
 q=  -0.33333333  0.32071057 -0.47152429
 q=   0.33333333 -0.32071057  0.47152429
 q=  -0.33333333 -0.32071057  0.47152429
 q=   0.33333333  0.32071057 -0.47152429

      q-space grid ok, #points =   27

      fft-check success (sum of imaginary terms < 10^-12)

     Q2R          :      3.04s CPU      3.09s WALL


   This run was terminated on:  22:44: 1  22Jul2024            

=------------------------------------------------------------------------------=
   JOB DONE.
=------------------------------------------------------------------------------=
