
     Program PWSCF v.7.3.1 starts on  6Aug2024 at 14:42:27 

     This program is part of the open-source Quantum ESPRESSO suite
     for quantum simulation of materials; please cite
         "P. Giannozzi et al., J. Phys.:Condens. Matter 21 395502 (2009);
         "P. Giannozzi et al., J. Phys.:Condens. Matter 29 465901 (2017);
         "P. Giannozzi et al., J. Chem. Phys. 152 154105 (2020);
          URL http://www.quantum-espresso.org", 
     in publications or presentations arising from this work. More details at
     http://www.quantum-espresso.org/quote

     Parallel version (MPI), running on    24 processors

     MPI processes distributed on     1 nodes
     93813 MiB available memory on the printing compute node when the environment starts

     Waiting for input...
     Reading input from standard input

     Current dimensions of program PWSCF are:
     Max number of different atomic species (ntypx) = 10
     Max number of k-points (npk) =  40000
     Max angular momentum in pseudopotentials (lmaxx) =  4

     R & G space division:  proc/nbgrp/npool/nimage =      24
     Subspace diagonalization in iterative solution of the eigenvalue problem:
     a serial algorithm will be used


     Parallelization info
     --------------------
     sticks:   dense  smooth     PW     G-vecs:    dense   smooth      PW
     Min         451     225     61                24193     8553    1233
     Max         452     227     63                24196     8554    1234
     Sum       10843    5419   1491               580659   205287   29607

     Using Slab Decomposition


     Title: 
     volume variation                                                           


     bravais-lattice index     =            8
     lattice parameter (alat)  =      12.8869  a.u.
     unit-cell volume          =    1519.7234 (a.u.)^3
     number of atoms/cell      =           22
     number of atomic types    =            3
     number of electrons       =        48.00
     number of Kohn-Sham states=           24
     kinetic-energy cutoff     =     100.0000  Ry
     charge density cutoff     =     800.0000  Ry
     scf convergence threshold =      1.0E-10
     mixing beta               =       0.7000
     number of iterations used =            8  plain     mixing
     energy convergence thresh.=      1.0E-05
     force convergence thresh. =      1.0E-05
     press convergence thresh. =      5.0E-01
     Exchange-correlation= PBESOL
                           (   1   4  10   8   0   0   0)
     nstep                     =          300


     celldm(1)=  12.886901  celldm(2)=   1.025571  celldm(3)=   0.692394
     celldm(4)=   0.000000  celldm(5)=   0.000000  celldm(6)=   0.000000

     crystal axes: (cart. coord. in units of alat)
               a(1) = (   1.000000   0.000000   0.000000 )  
               a(2) = (   0.000000   1.025571   0.000000 )  
               a(3) = (   0.000000   0.000000   0.692394 )  

     reciprocal axes: (cart. coord. in units 2 pi/alat)
               b(1) = (  1.000000  0.000000  0.000000 )  
               b(2) = (  0.000000  0.975067  0.000000 )  
               b(3) = (  0.000000  0.000000  1.444264 )  


     PseudoPot. # 1 for B  read from file:
     /home/mehlhorn/pseudos/b_pbesol_v1.4.uspp.F.UPF
     MD5 check sum: 369b69bef2c3aeed4453bd8b804fd6a8
     Pseudo is Ultrasoft + core correction, Zval =  3.0
     Generated by new atomic code, or converted to UPF format
     Using radial grid of  781 points,  4 beta functions with: 
                l(1) =   0
                l(2) =   0
                l(3) =   1
                l(4) =   1
     Q(r) pseudized with  8 coefficients,  rinner =    1.100   1.100   1.100


     PseudoPot. # 2 for Ba read from file:
     /home/mehlhorn/pseudos/Ba.nc.z_10.oncvpsp4.dojo.v4-sp.upf
     MD5 check sum: c10ed334bb677c0554edec7181ce9143
     Pseudo is Norm-conserving + core correction, Zval = 10.0
     Generated using ONCVPSP code by D. R. Hamann
     Using radial grid of 1938 points,  8 beta functions with: 
                l(1) =   0
                l(2) =   0
                l(3) =   1
                l(4) =   1
                l(5) =   2
                l(6) =   2
                l(7) =   3
                l(8) =   3

     PseudoPot. # 3 for H  read from file:
     /home/mehlhorn/pseudos/H_ONCV_PBEsol-1.0.upf
     MD5 check sum: 398ef8f67c0a7342c05c87c5e19ea467
     Pseudo is Norm-conserving, Zval =  1.0
     Generated using ONCVPSP code by D. R. Hamann
     Using radial grid of 1180 points,  2 beta functions with: 
                l(1) =   0
                l(2) =   0

     atomic species   valence    mass     pseudopotential
     B                 3.00    10.81100     B ( 1.00)
     Ba               10.00   137.32700     Ba( 1.00)
     H                 1.00     1.00794     H ( 1.00)

      4 Sym. Ops. (no inversion) found ( 2 have fractional translation)



   Cartesian axes

     site n.     atom                  positions (alat units)
         1        Ba     tau(   1) = (   0.5000000   0.5127855   0.3462657  )
         2        Ba     tau(   2) = (   0.0000000   0.0000000   0.6923255  )
         3        B      tau(   3) = (   0.6102570   0.2453190   0.0000455  )
         4        B      tau(   4) = (   0.3897430   0.7802519   0.0000455  )
         5        B      tau(   5) = (   0.1102570   0.2674665   0.3461516  )
         6        B      tau(   6) = (   0.8897430   0.7581045   0.3461516  )
         7        H      tau(   7) = (   0.4340973   0.2996264   0.0001599  )
         8        H      tau(   8) = (   0.5659027   0.7259445   0.0001599  )
         9        H      tau(   9) = (   0.9340973   0.2131590   0.3460372  )
        10        H      tau(  10) = (   0.0659027   0.8124119   0.3460372  )
        11        H      tau(  11) = (   0.7220603   0.3933629  -0.0000058  )
        12        H      tau(  12) = (   0.2779397   0.6322081  -0.0000058  )
        13        H      tau(  13) = (   0.2220603   0.1194226   0.3462029  )
        14        H      tau(  14) = (   0.7779397   0.9061483   0.3462029  )
        15        H      tau(  15) = (   0.6392499   0.1457279   0.5404125  )
        16        H      tau(  16) = (   0.3607501   0.8798430   0.5404125  )
        17        H      tau(  17) = (   0.1392499   0.3670576   0.4981787  )
        18        H      tau(  18) = (   0.8607501   0.6585133   0.4981787  )
        19        H      tau(  19) = (   0.3605328   0.8798946   0.1519977  )
        20        H      tau(  20) = (   0.6394672   0.1456763   0.1519977  )
        21        H      tau(  21) = (   0.8605328   0.6584617   0.1941994  )
        22        H      tau(  22) = (   0.1394672   0.3671092   0.1941994  )

     number of k points=    27
                       cart. coord. in units 2pi/alat
        k(    1) = (   0.0000000   0.0000000   0.0000000), wk =   0.0312500
        k(    2) = (   0.0000000   0.0000000   0.3610660), wk =   0.0625000
        k(    3) = (   0.0000000   0.0000000  -0.7221320), wk =   0.0312500
        k(    4) = (   0.0000000   0.2437667   0.0000000), wk =   0.0625000
        k(    5) = (   0.0000000   0.2437667   0.3610660), wk =   0.1250000
        k(    6) = (   0.0000000   0.2437667  -0.7221320), wk =   0.0625000
        k(    7) = (   0.0000000  -0.4875333   0.0000000), wk =   0.0312500
        k(    8) = (   0.0000000  -0.4875333   0.3610660), wk =   0.0625000
        k(    9) = (   0.0000000  -0.4875333  -0.7221320), wk =   0.0312500
        k(   10) = (   0.2500000   0.0000000   0.0000000), wk =   0.0625000
        k(   11) = (   0.2500000   0.0000000   0.3610660), wk =   0.1250000
        k(   12) = (   0.2500000   0.0000000  -0.7221320), wk =   0.0625000
        k(   13) = (   0.2500000   0.2437667   0.0000000), wk =   0.1250000
        k(   14) = (   0.2500000   0.2437667   0.3610660), wk =   0.2500000
        k(   15) = (   0.2500000   0.2437667  -0.7221320), wk =   0.1250000
        k(   16) = (   0.2500000  -0.4875333   0.0000000), wk =   0.0625000
        k(   17) = (   0.2500000  -0.4875333   0.3610660), wk =   0.1250000
        k(   18) = (   0.2500000  -0.4875333  -0.7221320), wk =   0.0625000
        k(   19) = (  -0.5000000   0.0000000   0.0000000), wk =   0.0312500
        k(   20) = (  -0.5000000   0.0000000   0.3610660), wk =   0.0625000
        k(   21) = (  -0.5000000   0.0000000  -0.7221320), wk =   0.0312500
        k(   22) = (  -0.5000000   0.2437667   0.0000000), wk =   0.0625000
        k(   23) = (  -0.5000000   0.2437667   0.3610660), wk =   0.1250000
        k(   24) = (  -0.5000000   0.2437667  -0.7221320), wk =   0.0625000
        k(   25) = (  -0.5000000  -0.4875333   0.0000000), wk =   0.0312500
        k(   26) = (  -0.5000000  -0.4875333   0.3610660), wk =   0.0625000
        k(   27) = (  -0.5000000  -0.4875333  -0.7221320), wk =   0.0312500

     Dense  grid:   580659 G-vectors     FFT dimensions: ( 120, 120,  90)

     Smooth grid:   205287 G-vectors     FFT dimensions: (  90,  90,  60)

     Estimated max dynamical RAM per process >      94.32 MB

     Estimated total dynamical RAM >       2.21 GB

     Initial potential from superposition of free atoms

     starting charge      47.9682, renormalised to      48.0000
     Starting wfcs are   42 randomized atomic wfcs

     total cpu time spent up to now is       13.0 secs

     Self-consistent Calculation

     iteration #  1     ecut=   100.00 Ry     beta= 0.70
     Davidson diagonalization with overlap
     ethr =  1.00E-02,  avg # of iterations =  2.0

     total cpu time spent up to now is       30.6 secs

     total energy              =    -155.95297701 Ry
     estimated scf accuracy    <       1.94850606 Ry

     iteration #  2     ecut=   100.00 Ry     beta= 0.70
     Davidson diagonalization with overlap
     ethr =  4.06E-03,  avg # of iterations =  2.0

     total cpu time spent up to now is       47.6 secs

     total energy              =    -156.39904937 Ry
     estimated scf accuracy    <       0.36345817 Ry

     iteration #  3     ecut=   100.00 Ry     beta= 0.70
     Davidson diagonalization with overlap
     ethr =  7.57E-04,  avg # of iterations =  2.0

     total cpu time spent up to now is       64.7 secs

     total energy              =    -156.45996899 Ry
     estimated scf accuracy    <       0.00467475 Ry

     iteration #  4     ecut=   100.00 Ry     beta= 0.70
     Davidson diagonalization with overlap
     ethr =  9.74E-06,  avg # of iterations =  5.1

     total cpu time spent up to now is       89.3 secs

     total energy              =    -156.46279385 Ry
     estimated scf accuracy    <       0.00179746 Ry

     iteration #  5     ecut=   100.00 Ry     beta= 0.70
     Davidson diagonalization with overlap
     ethr =  3.74E-06,  avg # of iterations =  2.9

     total cpu time spent up to now is      106.9 secs

     total energy              =    -156.46340932 Ry
     estimated scf accuracy    <       0.00018229 Ry

     iteration #  6     ecut=   100.00 Ry     beta= 0.70
     Davidson diagonalization with overlap
     ethr =  3.80E-07,  avg # of iterations =  4.0

     total cpu time spent up to now is      126.3 secs

     total energy              =    -156.46347478 Ry
     estimated scf accuracy    <       0.00000150 Ry

     iteration #  7     ecut=   100.00 Ry     beta= 0.70
     Davidson diagonalization with overlap
     ethr =  3.12E-09,  avg # of iterations =  9.1

     total cpu time spent up to now is      166.2 secs

     total energy              =    -156.46348658 Ry
     estimated scf accuracy    <       0.00000129 Ry

     iteration #  8     ecut=   100.00 Ry     beta= 0.70
     Davidson diagonalization with overlap
     ethr =  2.69E-09,  avg # of iterations =  2.0

     total cpu time spent up to now is      183.2 secs

     total energy              =    -156.46348682 Ry
     estimated scf accuracy    <       0.00000002 Ry

     iteration #  9     ecut=   100.00 Ry     beta= 0.70
     Davidson diagonalization with overlap
     ethr =  4.65E-11,  avg # of iterations =  5.8

     total cpu time spent up to now is      208.5 secs

     total energy              =    -156.46348684 Ry
     estimated scf accuracy    <          3.5E-09 Ry

     iteration # 10     ecut=   100.00 Ry     beta= 0.70
     Davidson diagonalization with overlap
     ethr =  7.22E-12,  avg # of iterations =  3.4

     total cpu time spent up to now is      228.1 secs

     total energy              =    -156.46348684 Ry
     estimated scf accuracy    <          3.1E-10 Ry

     iteration # 11     ecut=   100.00 Ry     beta= 0.70
     Davidson diagonalization with overlap
     ethr =  6.37E-13,  avg # of iterations =  4.7

     total cpu time spent up to now is      249.5 secs

     End of self-consistent calculation

          k = 0.0000 0.0000 0.0000 ( 25671 PWs)   bands (ev):

   -24.3994 -24.3929  -9.8414  -9.7740  -9.6208  -9.5915  -9.5579  -9.5079
    -6.1551  -5.2424  -4.6946  -4.5285  -1.8983  -1.0106  -1.0006  -0.6074
    -0.2617  -0.2560  -0.2393  -0.0835   0.0631   0.4514   0.4797   0.5195

          k = 0.0000 0.0000 0.3611 ( 25690 PWs)   bands (ev):

   -24.3935 -24.3889  -9.7654  -9.7597  -9.7374  -9.7206  -9.6073  -9.5914
    -5.7179  -5.0326  -4.8267  -4.7157  -1.5580  -1.3081  -0.8483  -0.7828
    -0.6614  -0.5584  -0.2093   0.0619   0.2750   0.2876   0.3549   0.5048

          k = 0.0000 0.0000-0.7221 ( 25628 PWs)   bands (ev):

   -24.3862 -24.3862  -9.9377  -9.9376  -9.6502  -9.6502  -9.6180  -9.6180
    -5.0622  -5.0617  -4.9345  -4.9340  -1.3145  -1.3141  -1.2964  -1.2949
    -0.2636  -0.2632  -0.2409  -0.2389   0.3130   0.3132   0.3364   0.3370

          k = 0.0000 0.2438 0.0000 ( 25658 PWs)   bands (ev):

   -24.3985 -24.3938  -9.8173  -9.7500  -9.6603  -9.6186  -9.5504  -9.5150
    -5.9778  -5.1668  -4.9497  -4.6404  -1.5651  -1.1783  -1.0862  -0.3574
    -0.3511  -0.3149  -0.0465   0.0594   0.1477   0.1517   0.3711   0.4519

          k = 0.0000 0.2438 0.3611 ( 25702 PWs)   bands (ev):

   -24.3928 -24.3895  -9.7976  -9.7629  -9.7055  -9.6991  -9.6131  -9.6081
    -5.6151  -5.0972  -4.8736  -4.7575  -1.3739  -1.3321  -1.1120  -0.5855
    -0.5401  -0.3448  -0.3392   0.1088   0.2011   0.2306   0.3365   0.3944

          k = 0.0000 0.2438-0.7221 ( 25694 PWs)   bands (ev):

   -24.3862 -24.3862  -9.9490  -9.9489  -9.6362  -9.6362  -9.6173  -9.6173
    -5.2716  -5.2715  -4.7184  -4.7184  -1.4141  -1.4134  -1.1454  -1.1447
    -0.2032  -0.2027  -0.1940  -0.1926   0.1602   0.1603   0.3307   0.3310

          k = 0.0000-0.4875 0.0000 ( 25634 PWs)   bands (ev):

   -24.3961 -24.3961  -9.7517  -9.7517  -9.6806  -9.6806  -9.5326  -9.5326
    -5.5254  -5.5254  -4.8914  -4.8914  -1.2908  -1.2908  -0.6458  -0.6458
    -0.4214  -0.4214   0.0679   0.0679   0.1778   0.1778   0.3133   0.3133

          k = 0.0000-0.4875 0.3611 ( 25690 PWs)   bands (ev):

   -24.3912 -24.3912  -9.7951  -9.7951  -9.6660  -9.6660  -9.6343  -9.6343
    -5.3564  -5.3564  -4.8394  -4.8394  -1.3127  -1.3127  -0.9004  -0.9004
    -0.3158  -0.3158  -0.0424  -0.0424   0.1177   0.1177   0.3178   0.3178

          k = 0.0000-0.4875-0.7221 ( 25740 PWs)   bands (ev):

   -24.3862 -24.3862  -9.9594  -9.9594  -9.6256  -9.6256  -9.6141  -9.6141
    -5.3783  -5.3783  -4.6054  -4.6054  -1.4959  -1.4959  -0.9326  -0.9326
    -0.2635  -0.2635  -0.1160  -0.1160  -0.0195  -0.0195   0.3666   0.3666

          k = 0.2500 0.0000 0.0000 ( 25651 PWs)   bands (ev):

   -24.3985 -24.3938  -9.8106  -9.7581  -9.6540  -9.6300  -9.5504  -9.5150
    -5.9852  -5.2939  -4.7206  -4.6634  -1.7177  -0.9122  -0.8902  -0.7354
    -0.2442  -0.1949  -0.1313  -0.0634   0.0277   0.0521   0.4240   0.4678

          k = 0.2500 0.0000 0.3611 ( 25668 PWs)   bands (ev):

   -24.3928 -24.3895  -9.7893  -9.7726  -9.7294  -9.6791  -9.6263  -9.5978
    -5.5811  -5.0349  -4.8500  -4.8328  -1.5268  -1.2793  -1.1318  -0.6375
    -0.5949  -0.3631  -0.1290   0.0021   0.1195   0.2544   0.4386   0.4564

          k = 0.2500 0.0000-0.7221 ( 25662 PWs)   bands (ev):

   -24.3862 -24.3862  -9.9524  -9.9523  -9.6403  -9.6403  -9.6149  -9.6149
    -5.0873  -5.0869  -4.8838  -4.8834  -1.7535  -1.7530  -0.8960  -0.8956
    -0.2792  -0.2788   0.0047   0.0062   0.1373   0.1375   0.3731   0.3734

          k = 0.2500 0.2438 0.0000 ( 25666 PWs)   bands (ev):

   -24.3978 -24.3945  -9.8319  -9.7381  -9.6937  -9.5964  -9.5450  -9.5200
    -5.8509  -5.2583  -4.9286  -4.7094  -1.4465  -1.1360  -0.9044  -0.4621
    -0.3922  -0.3509  -0.0605   0.0689   0.0986   0.1584   0.2471   0.3818

          k = 0.2500 0.2438 0.3611 ( 25654 PWs)   bands (ev):

   -24.3923 -24.3900  -9.7898  -9.7594  -9.7581  -9.6648  -9.6325  -9.5936
    -5.4943  -5.0536  -4.9506  -4.8330  -1.4851  -1.2401  -1.1621  -0.6290
    -0.4557  -0.2971  -0.1901   0.0131   0.1109   0.2209   0.3587   0.4375

          k = 0.2500 0.2438-0.7221 ( 25680 PWs)   bands (ev):

   -24.3862 -24.3862  -9.9583  -9.9396  -9.6555  -9.6264  -9.6205  -9.6156
    -5.2711  -5.1290  -4.8370  -4.6921  -1.7294  -1.6625  -0.9522  -0.8799
    -0.3204  -0.3187  -0.0203   0.0263   0.1708   0.1935   0.3198   0.3619

          k = 0.2500-0.4875 0.0000 ( 25658 PWs)   bands (ev):

   -24.3961 -24.3961  -9.8109  -9.8109  -9.6229  -9.6229  -9.5323  -9.5323
    -5.5080  -5.5080  -4.9041  -4.9041  -1.1897  -1.1897  -0.6585  -0.6585
    -0.4535  -0.4535   0.0033   0.0033   0.2091   0.2091   0.2482   0.2482

          k = 0.2500-0.4875 0.3611 ( 25666 PWs)   bands (ev):

   -24.3912 -24.3912  -9.7869  -9.7869  -9.7101  -9.7101  -9.6039  -9.6039
    -5.2754  -5.2754  -4.9062  -4.9062  -1.3911  -1.3911  -0.8505  -0.8505
    -0.3196  -0.3196  -0.0136  -0.0136   0.1185   0.1185   0.3335   0.3335

          k = 0.2500-0.4875-0.7221 ( 25656 PWs)   bands (ev):

   -24.3862 -24.3862  -9.9464  -9.9464  -9.6422  -9.6422  -9.6198  -9.6198
    -5.2873  -5.2873  -4.6710  -4.6710  -1.6283  -1.6283  -0.9816  -0.9816
    -0.2163  -0.2163  -0.0970  -0.0970   0.1735   0.1735   0.3494   0.3494

          k =-0.5000 0.0000 0.0000 ( 25710 PWs)   bands (ev):

   -24.3961 -24.3961  -9.7368  -9.7368  -9.7018  -9.7018  -9.5326  -9.5326
    -5.5918  -5.5918  -4.7578  -4.7578  -1.3163  -1.3163  -0.5508  -0.5508
    -0.2060  -0.2060  -0.1723  -0.1723  -0.0788  -0.0788   0.3272   0.3272

          k =-0.5000 0.0000 0.3611 ( 25604 PWs)   bands (ev):

   -24.3912 -24.3912  -9.7970  -9.7970  -9.6827  -9.6827  -9.6239  -9.6239
    -5.2575  -5.2575  -4.8948  -4.8948  -1.4429  -1.4429  -0.9030  -0.9030
    -0.3225  -0.3225  -0.1403  -0.1403   0.2175   0.2175   0.4224   0.4224

          k =-0.5000 0.0000-0.7221 ( 25592 PWs)   bands (ev):

   -24.3862 -24.3862  -9.9660  -9.9660  -9.6330  -9.6330  -9.6102  -9.6102
    -5.1068  -5.1068  -4.8367  -4.8367  -1.9540  -1.9540  -0.6406  -0.6406
    -0.2911  -0.2911  -0.1194  -0.1194   0.3055   0.3055   0.3460   0.3460

          k =-0.5000 0.2438 0.0000 ( 25644 PWs)   bands (ev):

   -24.3961 -24.3961  -9.8099  -9.8099  -9.6271  -9.6271  -9.5323  -9.5323
    -5.5466  -5.5466  -4.8322  -4.8322  -1.2114  -1.2114  -0.5573  -0.5573
    -0.3905  -0.3905  -0.2078  -0.2078   0.1253   0.1253   0.3035   0.3035

          k =-0.5000 0.2438 0.3611 ( 25652 PWs)   bands (ev):

   -24.3912 -24.3912  -9.7882  -9.7882  -9.7141  -9.7141  -9.6028  -9.6028
    -5.2115  -5.2115  -4.9482  -4.9482  -1.4451  -1.4451  -0.8826  -0.8826
    -0.2869  -0.2869  -0.0929  -0.0929   0.2101   0.2101   0.3565   0.3565

          k =-0.5000 0.2438-0.7221 ( 25680 PWs)   bands (ev):

   -24.3862 -24.3862  -9.9500  -9.9500  -9.6444  -9.6444  -9.6191  -9.6191
    -5.1406  -5.1406  -4.7975  -4.7975  -1.8637  -1.8637  -0.8289  -0.8289
    -0.2473  -0.2473  -0.0592  -0.0592   0.2624   0.2624   0.3924   0.3924

          k =-0.5000-0.4875 0.0000 ( 25688 PWs)   bands (ev):

   -24.3961 -24.3961  -9.8458  -9.8458  -9.5896  -9.5896  -9.5320  -9.5320
    -5.4914  -5.4914  -4.9155  -4.9155  -1.0573  -1.0573  -0.7084  -0.7084
    -0.4828  -0.4828  -0.0163  -0.0163   0.1433   0.1433   0.2376   0.2376

          k =-0.5000-0.4875 0.3611 ( 25664 PWs)   bands (ev):

   -24.3911 -24.3911  -9.7722  -9.7722  -9.7444  -9.7444  -9.5898  -9.5898
    -5.1296  -5.1296  -5.0372  -5.0372  -1.4287  -1.4287  -0.9281  -0.9281
    -0.1434  -0.1434  -0.0018  -0.0018   0.1358   0.1358   0.2521   0.2521

          k =-0.5000-0.4875-0.7221 ( 25624 PWs)   bands (ev):

   -24.3862 -24.3862  -9.9318  -9.9318  -9.6614  -9.6614  -9.6245  -9.6245
    -5.1684  -5.1684  -4.7642  -4.7642  -1.7223  -1.7223  -1.0974  -1.0974
    -0.0407  -0.0407   0.0083   0.0083   0.1515   0.1515   0.3606   0.3606

     highest occupied level (ev):     0.5195

!    total energy              =    -156.46348684 Ry
     estimated scf accuracy    <          5.8E-11 Ry

     The total energy is the sum of the following terms:
     one-electron contribution =     -24.87111560 Ry
     hartree contribution      =      26.06281012 Ry
     xc contribution           =     -48.82824865 Ry
     ewald contribution        =    -108.82693272 Ry

     convergence has been achieved in  11 iterations

     Forces acting on atoms (cartesian axes, Ry/au):

     atom    1 type  2   force =     0.00000000    0.00000000    0.00000988
     atom    2 type  2   force =     0.00000000    0.00000000   -0.00000988
     atom    3 type  1   force =     0.00036028    0.00182267   -0.00001500
     atom    4 type  1   force =    -0.00036028   -0.00182267   -0.00001500
     atom    5 type  1   force =     0.00036028   -0.00182267    0.00001500
     atom    6 type  1   force =    -0.00036028    0.00182267    0.00001500
     atom    7 type  3   force =     0.01617192   -0.00411638   -0.00002128
     atom    8 type  3   force =    -0.01617192    0.00411638   -0.00002128
     atom    9 type  3   force =     0.01617192    0.00411638    0.00002128
     atom   10 type  3   force =    -0.01617192   -0.00411638    0.00002128
     atom   11 type  3   force =    -0.01068467   -0.01293612    0.00000830
     atom   12 type  3   force =     0.01068467    0.01293612    0.00000830
     atom   13 type  3   force =    -0.01068467    0.01293612   -0.00000830
     atom   14 type  3   force =     0.01068467   -0.01293612   -0.00000830
     atom   15 type  3   force =    -0.00199548    0.00950630    0.01443724
     atom   16 type  3   force =     0.00199548   -0.00950630    0.01443724
     atom   17 type  3   force =    -0.00199548   -0.00950630   -0.01443724
     atom   18 type  3   force =     0.00199548    0.00950630   -0.01443724
     atom   19 type  3   force =     0.00205457   -0.00952635   -0.01444212
     atom   20 type  3   force =    -0.00205457    0.00952635   -0.01444212
     atom   21 type  3   force =     0.00205457    0.00952635    0.01444212
     atom   22 type  3   force =    -0.00205457   -0.00952635    0.01444212

     Total force =     0.068404     Total SCF correction =     0.000004


     Computing stress (Cartesian axis) and pressure

          total   stress  (Ry/bohr**3)                   (kbar)     P=      -34.51
  -0.00021856   0.00000000   0.00000000          -32.15        0.00        0.00
   0.00000000  -0.00022286   0.00000000            0.00      -32.78        0.00
   0.00000000   0.00000000  -0.00026241            0.00        0.00      -38.60

     Volume is kept fixed: isostatic pressure set to zero

     BFGS Geometry Optimization
     Energy error            =      0.0E+00 Ry
     Gradient error          =      1.6E-02 Ry/Bohr
     Cell gradient error     =      4.1E+00 kbar

     number of scf cycles    =   1
     number of bfgs steps    =   0

     enthalpy           new  =    -156.4634868446 Ry

     new trust radius        =       0.0174226092 bohr
ibrav =      8
 celldm(1) =     12.89207346
 celldm(2) =      1.02546067
 celldm(3) =      0.69163541
Input lattice vectors:
     1.00040140     0.00000000     0.00000000
     0.00000000     1.02587229     0.00000000
     0.00000000     0.00000000     0.69191303
New lattice vectors in INITIAL alat:
     1.00040140     0.00000000     0.00000000
     0.00000000     1.02587229     0.00000000
     0.00000000     0.00000000     0.69191303
New lattice vectors in NEW alat (for information only):
     1.00000000     0.00000000     0.00000000
     0.00000000     1.02546067     0.00000000
     0.00000000     0.00000000     0.69163541
Discrepancy in bohr =     0.000000    0.000000    0.000000
     new conv_thr            =            1.0E-10 Ry

     new unit-cell volume =   1519.72336 a.u.^3 (   225.19977 Ang^3 )
     density =      2.46298 g/cm^3

CELL_PARAMETERS (alat= 12.88690067)
   1.000401399   0.000000000   0.000000000
   0.000000000   1.025872286   0.000000000
   0.000000000   0.000000000   0.691913027

ATOMIC_POSITIONS (crystal)
Ba               0.5000000000        0.5000000000        0.5001002731
Ba               0.0000000000        0.0000000000        0.9998997269
B                0.6102849733        0.2393402897        0.0000639758
B                0.3897150267        0.7606597103        0.0000639758
B                0.1102849733        0.2606597103        0.4999360242
B                0.8897150267        0.7393402897        0.4999360242
H                0.4353521640        0.2918442693        0.0002285485
H                0.5646478360        0.7081557307        0.0002285485
H                0.9353521640        0.2081557307        0.4997714515
H                0.0646478360        0.7918442693        0.4997714515
H                0.7212311572        0.3825762185       -0.0000074418
H                0.2787688428        0.6174237815       -0.0000074418
H                0.2212311572        0.1174237815        0.5000074418
H                0.7787688428        0.8825762185        0.5000074418
H                0.6390950788        0.1428136738        0.7821164280
H                0.3609049212        0.8571863262        0.7821164280
H                0.1390950788        0.3571863262        0.7178835720
H                0.8609049212        0.6428136738        0.7178835720
H                0.3606922613        0.8572351187        0.2179062877
H                0.6393077387        0.1427648813        0.2179062877
H                0.8606922613        0.6427648813        0.2820937123
H                0.1393077387        0.3572351187        0.2820937123



     Writing config-only to output data dir ./pwscf.save/ :
     XML data file
     NEW-OLD atomic charge density approx. for the potential

     total cpu time spent up to now is      281.5 secs

     Self-consistent Calculation

     iteration #  1     ecut=   100.00 Ry     beta= 0.70
     Davidson diagonalization with overlap
     ethr =  1.00E-06,  avg # of iterations =  4.0

     total cpu time spent up to now is      306.4 secs

     total energy              =    -156.46700071 Ry
     estimated scf accuracy    <       0.00113487 Ry

     iteration #  2     ecut=   100.00 Ry     beta= 0.70
     Davidson diagonalization with overlap
     ethr =  2.36E-06,  avg # of iterations =  2.0

     total cpu time spent up to now is      323.4 secs

     total energy              =    -156.46733710 Ry
     estimated scf accuracy    <       0.00026700 Ry

     iteration #  3     ecut=   100.00 Ry     beta= 0.70
     Davidson diagonalization with overlap
     ethr =  5.56E-07,  avg # of iterations =  2.0

     total cpu time spent up to now is      340.4 secs

     total energy              =    -156.46737127 Ry
     estimated scf accuracy    <       0.00000422 Ry

     iteration #  4     ecut=   100.00 Ry     beta= 0.70
     Davidson diagonalization with overlap
     ethr =  8.78E-09,  avg # of iterations =  3.0

     total cpu time spent up to now is      360.2 secs

     total energy              =    -156.46737345 Ry
     estimated scf accuracy    <       0.00000322 Ry

     iteration #  5     ecut=   100.00 Ry     beta= 0.70
     Davidson diagonalization with overlap
     ethr =  6.70E-09,  avg # of iterations =  2.0

     total cpu time spent up to now is      377.2 secs

     total energy              =    -156.46737365 Ry
     estimated scf accuracy    <       0.00000023 Ry

     iteration #  6     ecut=   100.00 Ry     beta= 0.70
     Davidson diagonalization with overlap
     ethr =  4.84E-10,  avg # of iterations =  2.6

     total cpu time spent up to now is      394.5 secs

     total energy              =    -156.46737375 Ry
     estimated scf accuracy    <       0.00000004 Ry

     iteration #  7     ecut=   100.00 Ry     beta= 0.70
     Davidson diagonalization with overlap
     ethr =  8.79E-11,  avg # of iterations =  2.3

     total cpu time spent up to now is      411.6 secs

     total energy              =    -156.46737376 Ry
     estimated scf accuracy    <          1.7E-09 Ry

     iteration #  8     ecut=   100.00 Ry     beta= 0.70
     Davidson diagonalization with overlap
     ethr =  3.55E-12,  avg # of iterations =  5.3

     total cpu time spent up to now is      436.7 secs

     End of self-consistent calculation

          k = 0.0000 0.0000 0.0000 ( 25671 PWs)   bands (ev):

   -24.4150 -24.4084  -9.8570  -9.7889  -9.6355  -9.6059  -9.5719  -9.5221
    -6.1857  -5.2913  -4.7414  -4.5782  -1.8976  -1.0193  -1.0193  -0.6362
    -0.2805  -0.2722  -0.2564  -0.1072   0.0422   0.4179   0.4460   0.4834

          k = 0.0000 0.0000 0.3613 ( 25690 PWs)   bands (ev):

   -24.4090 -24.4044  -9.7804  -9.7751  -9.7530  -9.7352  -9.6218  -9.6058
    -5.7502  -5.0798  -4.8753  -4.7666  -1.5551  -1.3116  -0.8522  -0.8026
    -0.6792  -0.5772  -0.2335   0.0329   0.2439   0.2555   0.3257   0.4708

          k = 0.0000 0.0000-0.7226 ( 25628 PWs)   bands (ev):

   -24.4017 -24.4017  -9.9543  -9.9541  -9.6644  -9.6643  -9.6324  -9.6324
    -5.1026  -5.1021  -4.9856  -4.9851  -1.3154  -1.3149  -1.2961  -1.2946
    -0.2903  -0.2899  -0.2644  -0.2624   0.2823   0.2825   0.3034   0.3040

          k = 0.0000 0.2437 0.0000 ( 25658 PWs)   bands (ev):

   -24.4140 -24.4094  -9.8329  -9.7651  -9.6749  -9.6331  -9.5644  -9.5293
    -6.0097  -5.2156  -4.9917  -4.6899  -1.5700  -1.1868  -1.1002  -0.3759
    -0.3728  -0.3449  -0.0658   0.0364   0.1220   0.1245   0.3380   0.4188

          k = 0.0000 0.2437 0.3613 ( 25702 PWs)   bands (ev):

   -24.4083 -24.4050  -9.8127  -9.7783  -9.7208  -9.7138  -9.6276  -9.6224
    -5.6494  -5.1431  -4.9203  -4.8074  -1.3743  -1.3351  -1.1191  -0.6005
    -0.5591  -0.3714  -0.3596   0.0800   0.1710   0.1993   0.3061   0.3626

          k = 0.0000 0.2437-0.7226 ( 25694 PWs)   bands (ev):

   -24.4017 -24.4017  -9.9655  -9.9654  -9.6503  -9.6503  -9.6318  -9.6318
    -5.3167  -5.3166  -4.7645  -4.7645  -1.4143  -1.4136  -1.1472  -1.1465
    -0.2287  -0.2286  -0.2197  -0.2181   0.1312   0.1313   0.2979   0.2982

          k = 0.0000-0.4874 0.0000 ( 25634 PWs)   bands (ev):

   -24.4117 -24.4117  -9.7673  -9.7673  -9.6949  -9.6949  -9.5467  -9.5467
    -5.5614  -5.5614  -4.9400  -4.9400  -1.2982  -1.2982  -0.6648  -0.6648
    -0.4409  -0.4409   0.0353   0.0353   0.1539   0.1539   0.2846   0.2846

          k = 0.0000-0.4874 0.3613 ( 25690 PWs)   bands (ev):

   -24.4067 -24.4067  -9.8103  -9.8103  -9.6813  -9.6813  -9.6485  -9.6485
    -5.3959  -5.3959  -4.8873  -4.8873  -1.3151  -1.3151  -0.9115  -0.9115
    -0.3393  -0.3393  -0.0666  -0.0666   0.0859   0.0859   0.2872   0.2872

          k = 0.0000-0.4874-0.7226 ( 25740 PWs)   bands (ev):

   -24.4017 -24.4017  -9.9758  -9.9758  -9.6397  -9.6397  -9.6286  -9.6286
    -5.4238  -5.4238  -4.6506  -4.6506  -1.4958  -1.4958  -0.9351  -0.9351
    -0.2911  -0.2911  -0.1393  -0.1393  -0.0490  -0.0490   0.3332   0.3332

          k = 0.2499 0.0000 0.0000 ( 25651 PWs)   bands (ev):

   -24.4140 -24.4094  -9.8262  -9.7730  -9.6688  -9.6444  -9.5644  -9.5293
    -6.0175  -5.3396  -4.7680  -4.7118  -1.7186  -0.9236  -0.9043  -0.7572
    -0.2614  -0.2195  -0.1521  -0.0881   0.0044   0.0242   0.3904   0.4318

          k = 0.2499 0.0000 0.3613 ( 25668 PWs)   bands (ev):

   -24.4083 -24.4050  -9.8045  -9.7880  -9.7445  -9.6941  -9.6407  -9.6122
    -5.6152  -5.0803  -4.8988  -4.8822  -1.5230  -1.2870  -1.1334  -0.6555
    -0.6165  -0.3841  -0.1563  -0.0250   0.0909   0.2252   0.4046   0.4250

          k = 0.2499 0.0000-0.7226 ( 25662 PWs)   bands (ev):

   -24.4017 -24.4017  -9.9689  -9.9688  -9.6544  -9.6544  -9.6294  -9.6293
    -5.1341  -5.1337  -4.9289  -4.9285  -1.7495  -1.7491  -0.9020  -0.9016
    -0.3048  -0.3045  -0.0213  -0.0198   0.1083   0.1085   0.3404   0.3407

          k = 0.2499 0.2437 0.0000 ( 25666 PWs)   bands (ev):

   -24.4133 -24.4100  -9.8472  -9.7536  -9.7080  -9.6110  -9.5591  -9.5342
    -5.8848  -5.3035  -4.9729  -4.7566  -1.4531  -1.1470  -0.9197  -0.4821
    -0.4109  -0.3706  -0.0882   0.0455   0.0697   0.1339   0.2151   0.3505

          k = 0.2499 0.2437 0.3613 ( 25654 PWs)   bands (ev):

   -24.4078 -24.4055  -9.8052  -9.7745  -9.7731  -9.6801  -9.6467  -9.6080
    -5.5301  -5.1000  -4.9956  -4.8819  -1.4837  -1.2420  -1.1711  -0.6473
    -0.4765  -0.3194  -0.2161  -0.0128   0.0814   0.1903   0.3272   0.4062

          k = 0.2499 0.2437-0.7226 ( 25680 PWs)   bands (ev):

   -24.4017 -24.4017  -9.9748  -9.9560  -9.6697  -9.6405  -9.6348  -9.6301
    -5.3177  -5.1749  -4.8829  -4.7372  -1.7256  -1.6584  -0.9595  -0.8859
    -0.3456  -0.3435  -0.0450  -0.0005   0.1405   0.1629   0.2891   0.3279

          k = 0.2499-0.4874 0.0000 ( 25658 PWs)   bands (ev):

   -24.4116 -24.4116  -9.8261  -9.8261  -9.6375  -9.6375  -9.5464  -9.5464
    -5.5465  -5.5465  -4.9495  -4.9495  -1.2009  -1.2009  -0.6771  -0.6771
    -0.4721  -0.4721  -0.0232  -0.0232   0.1843   0.1843   0.2173   0.2173

          k = 0.2499-0.4874 0.3613 ( 25666 PWs)   bands (ev):

   -24.4067 -24.4067  -9.8020  -9.8020  -9.7252  -9.7252  -9.6183  -9.6183
    -5.3160  -5.3160  -4.9529  -4.9529  -1.3921  -1.3921  -0.8650  -0.8650
    -0.3414  -0.3414  -0.0401  -0.0401   0.0891   0.0891   0.3026   0.3026

          k = 0.2499-0.4874-0.7226 ( 25656 PWs)   bands (ev):

   -24.4017 -24.4017  -9.9628  -9.9628  -9.6563  -9.6563  -9.6343  -9.6343
    -5.3335  -5.3335  -4.7164  -4.7164  -1.6245  -1.6245  -0.9890  -0.9890
    -0.2428  -0.2428  -0.1210  -0.1210   0.1428   0.1428   0.3169   0.3169

          k =-0.4998 0.0000 0.0000 ( 25710 PWs)   bands (ev):

   -24.4116 -24.4116  -9.7525  -9.7525  -9.7159  -9.7159  -9.5467  -9.5467
    -5.6292  -5.6292  -4.8064  -4.8064  -1.3211  -1.3211  -0.5691  -0.5691
    -0.2234  -0.2234  -0.2008  -0.2008  -0.1042  -0.1042   0.2933   0.2933

          k =-0.4998 0.0000 0.3613 ( 25604 PWs)   bands (ev):

   -24.4067 -24.4067  -9.8123  -9.8123  -9.6978  -9.6978  -9.6383  -9.6383
    -5.2963  -5.2963  -4.9443  -4.9443  -1.4413  -1.4413  -0.9161  -0.9161
    -0.3469  -0.3469  -0.1663  -0.1663   0.1890   0.1890   0.3894   0.3894

          k =-0.4998 0.0000-0.7226 ( 25592 PWs)   bands (ev):

   -24.4016 -24.4016  -9.9825  -9.9825  -9.6470  -9.6470  -9.6247  -9.6247
    -5.1565  -5.1565  -4.8794  -4.8794  -1.9482  -1.9482  -0.6489  -0.6489
    -0.3167  -0.3167  -0.1462  -0.1462   0.2770   0.2770   0.3123   0.3123

          k =-0.4998 0.2437 0.0000 ( 25644 PWs)   bands (ev):

   -24.4116 -24.4116  -9.8250  -9.8250  -9.6417  -9.6417  -9.5464  -9.5464
    -5.5856  -5.5856  -4.8777  -4.8777  -1.2215  -1.2215  -0.5752  -0.5752
    -0.4089  -0.4089  -0.2335  -0.2335   0.1006   0.1006   0.2707   0.2707

          k =-0.4998 0.2437 0.3613 ( 25652 PWs)   bands (ev):

   -24.4066 -24.4066  -9.8033  -9.8033  -9.7291  -9.7291  -9.6172  -9.6172
    -5.2515  -5.2515  -4.9959  -4.9959  -1.4445  -1.4445  -0.8969  -0.8969
    -0.3107  -0.3107  -0.1189  -0.1189   0.1808   0.1808   0.3255   0.3255

          k =-0.4998 0.2437-0.7226 ( 25680 PWs)   bands (ev):

   -24.4016 -24.4016  -9.9664  -9.9664  -9.6585  -9.6585  -9.6336  -9.6336
    -5.1888  -5.1888  -4.8417  -4.8417  -1.8580  -1.8580  -0.8377  -0.8377
    -0.2719  -0.2719  -0.0869  -0.0869   0.2327   0.2327   0.3599   0.3599

          k =-0.4998-0.4874 0.0000 ( 25688 PWs)   bands (ev):

   -24.4116 -24.4116  -9.8608  -9.8608  -9.6042  -9.6042  -9.5462  -9.5462
    -5.5326  -5.5326  -4.9575  -4.9575  -1.0761  -1.0761  -0.7209  -0.7209
    -0.5007  -0.5007  -0.0431  -0.0431   0.1145   0.1145   0.2120   0.2120

          k =-0.4998-0.4874 0.3613 ( 25664 PWs)   bands (ev):

   -24.4066 -24.4066  -9.7869  -9.7869  -9.7599  -9.7599  -9.6043  -9.6043
    -5.1721  -5.1721  -5.0820  -5.0820  -1.4289  -1.4289  -0.9432  -0.9432
    -0.1667  -0.1667  -0.0318  -0.0318   0.1072   0.1072   0.2249   0.2249

          k =-0.4998-0.4874-0.7226 ( 25624 PWs)   bands (ev):

   -24.4016 -24.4016  -9.9484  -9.9484  -9.6755  -9.6755  -9.6388  -9.6388
    -5.2156  -5.2156  -4.8094  -4.8094  -1.7164  -1.7164  -1.1055  -1.1055
    -0.0684  -0.0684  -0.0219  -0.0219   0.1240   0.1240   0.3301   0.3301

     highest occupied level (ev):     0.4834

!    total energy              =    -156.46737376 Ry
     estimated scf accuracy    <          8.2E-11 Ry

     The total energy is the sum of the following terms:
     one-electron contribution =     -25.37431332 Ry
     hartree contribution      =      26.31433483 Ry
     xc contribution           =     -48.89091095 Ry
     ewald contribution        =    -108.51648431 Ry

     convergence has been achieved in   8 iterations

     Forces acting on atoms (cartesian axes, Ry/au):

     atom    1 type  2   force =     0.00000000    0.00000000    0.00000810
     atom    2 type  2   force =     0.00000000    0.00000000   -0.00000810
     atom    3 type  1   force =     0.00048662    0.00201314   -0.00001071
     atom    4 type  1   force =    -0.00048662   -0.00201314   -0.00001071
     atom    5 type  1   force =     0.00048662   -0.00201314    0.00001071
     atom    6 type  1   force =    -0.00048662    0.00201314    0.00001071
     atom    7 type  3   force =     0.01062691   -0.00246714   -0.00001826
     atom    8 type  3   force =    -0.01062691    0.00246714   -0.00001826
     atom    9 type  3   force =     0.01062691    0.00246714    0.00001826
     atom   10 type  3   force =    -0.01062691   -0.00246714    0.00001826
     atom   11 type  3   force =    -0.00703562   -0.00805138    0.00000579
     atom   12 type  3   force =     0.00703562    0.00805138    0.00000579
     atom   13 type  3   force =    -0.00703562    0.00805138   -0.00000579
     atom   14 type  3   force =     0.00703562   -0.00805138   -0.00000579
     atom   15 type  3   force =    -0.00104694    0.00621293    0.00909954
     atom   16 type  3   force =     0.00104694   -0.00621293    0.00909954
     atom   17 type  3   force =    -0.00104694   -0.00621293   -0.00909954
     atom   18 type  3   force =     0.00104694    0.00621293   -0.00909954
     atom   19 type  3   force =     0.00109660   -0.00623049   -0.00910786
     atom   20 type  3   force =    -0.00109660    0.00623049   -0.00910786
     atom   21 type  3   force =     0.00109660    0.00623049    0.00910786
     atom   22 type  3   force =    -0.00109660   -0.00623049    0.00910786

     Total force =     0.043959     Total SCF correction =     0.000004


     Computing stress (Cartesian axis) and pressure

          total   stress  (Ry/bohr**3)                   (kbar)     P=      -27.35
  -0.00017348   0.00000000   0.00000000          -25.52        0.00        0.00
   0.00000000  -0.00017619   0.00000000            0.00      -25.92        0.00
   0.00000000   0.00000000  -0.00020811            0.00        0.00      -30.61

     Volume is kept fixed: isostatic pressure set to zero
     Energy error            =      3.9E-03 Ry
     Gradient error          =      1.1E-02 Ry/Bohr
     Cell gradient error     =      3.3E+00 kbar

     number of scf cycles    =   2
     number of bfgs steps    =   1

     enthalpy           old  =    -156.4634868446 Ry
     enthalpy           new  =    -156.4673737584 Ry

     CASE: enthalpy          _new < enthalpy          _old

     new trust radius        =       0.0261238802 bohr
ibrav =      8
 celldm(1) =     12.90152967
 celldm(2) =      1.02529753
 celldm(3) =      0.69022552
Input lattice vectors:
     1.00113518     0.00000000     0.00000000
     0.00000000     1.02646143     0.00000000
     0.00000000     0.00000000     0.69100905
New lattice vectors in INITIAL alat:
     1.00113518     0.00000000     0.00000000
     0.00000000     1.02646143     0.00000000
     0.00000000     0.00000000     0.69100905
New lattice vectors in NEW alat (for information only):
     1.00000000     0.00000000     0.00000000
     0.00000000     1.02529753     0.00000000
     0.00000000     0.00000000     0.69022552
Discrepancy in bohr =     0.000000    0.000000    0.000000
     new conv_thr            =            1.0E-10 Ry

     new unit-cell volume =   1519.72336 a.u.^3 (   225.19977 Ang^3 )
     density =      2.46298 g/cm^3

CELL_PARAMETERS (alat= 12.88690067)
   1.001135184   0.000000000   0.000000000
   0.000000000   1.026461431   0.000000000
   0.000000000   0.000000000   0.691009050

ATOMIC_POSITIONS (crystal)
Ba               0.5000000000        0.5000000000        0.5001024098
Ba               0.0000000000        0.0000000000        0.9998975902
B                0.6103737819        0.2396986902        0.0000611501
B                0.3896262181        0.7603013098        0.0000611501
B                0.1103737819        0.2603013098        0.4999388499
B                0.8896262181        0.7396986902        0.4999388499
H                0.4372966862        0.2914039166        0.0002237350
H                0.5627033138        0.7085960834        0.0002237350
H                0.9372966862        0.2085960834        0.4997762650
H                0.0627033138        0.7914039166        0.4997762650
H                0.7199437865        0.3811394463       -0.0000059128
H                0.2800562135        0.6188605537       -0.0000059128
H                0.2199437865        0.1188605537        0.5000059128
H                0.7800562135        0.8811394463        0.5000059128
H                0.6389032609        0.1439220882        0.7845190899
H                0.3610967391        0.8560779118        0.7845190899
H                0.1389032609        0.3560779118        0.7154809101
H                0.8610967391        0.6439220882        0.7154809101
H                0.3608931549        0.8561235763        0.2155014359
H                0.6391068451        0.1438764237        0.2155014359
H                0.8608931549        0.6438764237        0.2844985641
H                0.1391068451        0.3561235763        0.2844985641



     Writing config-only to output data dir ./pwscf.save/ :
     XML data file
     NEW-OLD atomic charge density approx. for the potential

     total cpu time spent up to now is      469.0 secs

     Self-consistent Calculation

     iteration #  1     ecut=   100.00 Ry     beta= 0.70
     Davidson diagonalization with overlap
     ethr =  1.00E-06,  avg # of iterations =  5.0

     total cpu time spent up to now is      495.1 secs

     total energy              =    -156.46903589 Ry
     estimated scf accuracy    <       0.00279578 Ry

     iteration #  2     ecut=   100.00 Ry     beta= 0.70
     Davidson diagonalization with overlap
     ethr =  5.82E-06,  avg # of iterations =  2.0

     total cpu time spent up to now is      512.2 secs

     total energy              =    -156.46989299 Ry
     estimated scf accuracy    <       0.00071592 Ry

     iteration #  3     ecut=   100.00 Ry     beta= 0.70
     Davidson diagonalization with overlap
     ethr =  1.49E-06,  avg # of iterations =  2.0

     total cpu time spent up to now is      529.2 secs

     total energy              =    -156.46998567 Ry
     estimated scf accuracy    <       0.00001099 Ry

     iteration #  4     ecut=   100.00 Ry     beta= 0.70
     Davidson diagonalization with overlap
     ethr =  2.29E-08,  avg # of iterations =  3.0

     total cpu time spent up to now is      549.0 secs

     total energy              =    -156.46999104 Ry
     estimated scf accuracy    <       0.00000660 Ry

     iteration #  5     ecut=   100.00 Ry     beta= 0.70
     Davidson diagonalization with overlap
     ethr =  1.37E-08,  avg # of iterations =  2.0

     total cpu time spent up to now is      566.0 secs

     total energy              =    -156.46999154 Ry
     estimated scf accuracy    <       0.00000038 Ry

     iteration #  6     ecut=   100.00 Ry     beta= 0.70
     Davidson diagonalization with overlap
     ethr =  7.92E-10,  avg # of iterations =  3.1

     total cpu time spent up to now is      584.3 secs

     total energy              =    -156.46999172 Ry
     estimated scf accuracy    <       0.00000014 Ry

     iteration #  7     ecut=   100.00 Ry     beta= 0.70
     Davidson diagonalization with overlap
     ethr =  2.91E-10,  avg # of iterations =  2.0

     total cpu time spent up to now is      601.3 secs

     total energy              =    -156.46999174 Ry
     estimated scf accuracy    <          2.4E-09 Ry

     iteration #  8     ecut=   100.00 Ry     beta= 0.70
     Davidson diagonalization with overlap
     ethr =  4.90E-12,  avg # of iterations =  6.3

     total cpu time spent up to now is      630.8 secs

     total energy              =    -156.46999175 Ry
     estimated scf accuracy    <          3.2E-10 Ry

     iteration #  9     ecut=   100.00 Ry     beta= 0.70
     Davidson diagonalization with overlap
     ethr =  6.60E-13,  avg # of iterations =  3.5

     total cpu time spent up to now is      647.0 secs

     total energy              =    -156.46999175 Ry
     estimated scf accuracy    <          4.1E-10 Ry

     iteration # 10     ecut=   100.00 Ry     beta= 0.70
     Davidson diagonalization with overlap
     ethr =  6.60E-13,  avg # of iterations =  2.0

     total cpu time spent up to now is      663.9 secs

     End of self-consistent calculation

          k = 0.0000 0.0000 0.0000 ( 25671 PWs)   bands (ev):

   -24.4378 -24.4313  -9.8805  -9.8112  -9.6574  -9.6273  -9.5926  -9.5433
    -6.2332  -5.3659  -4.8129  -4.6546  -1.8994  -1.0498  -1.0344  -0.6814
    -0.3135  -0.2945  -0.2774  -0.1395   0.0155   0.3670   0.3912   0.4251

          k = 0.0000 0.0000 0.3618 ( 25690 PWs)   bands (ev):

   -24.4318 -24.4272  -9.8028  -9.7985  -9.7769  -9.7568  -9.6433  -9.6271
    -5.7996  -5.1511  -4.9499  -4.8450  -1.5527  -1.3183  -0.8606  -0.8345
    -0.7047  -0.6028  -0.2691  -0.0099   0.1936   0.2060   0.2818   0.4174

          k = 0.0000 0.0000-0.7236 ( 25628 PWs)   bands (ev):

   -24.4244 -24.4244  -9.9800  -9.9799  -9.6851  -9.6851  -9.6538  -9.6538
    -5.1632  -5.1627  -5.0644  -5.0640  -1.3153  -1.3148  -1.2975  -1.2961
    -0.3328  -0.3324  -0.3005  -0.2985   0.2356   0.2357   0.2528   0.2533

          k = 0.0000 0.2436 0.0000 ( 25658 PWs)   bands (ev):

   -24.4369 -24.4323  -9.8562  -9.7877  -9.6966  -9.6545  -9.5852  -9.5504
    -6.0592  -5.2907  -5.0556  -4.7656  -1.5800  -1.2018  -1.1245  -0.4015
    -0.3996  -0.3918  -0.1006   0.0057   0.0734   0.0941   0.2877   0.3650

          k = 0.0000 0.2436 0.3618 ( 25702 PWs)   bands (ev):

   -24.4311 -24.4279  -9.8356  -9.8018  -9.7438  -9.7357  -9.6493  -9.6436
    -5.7016  -5.2126  -4.9921  -4.8841  -1.3762  -1.3410  -1.1328  -0.6212
    -0.5868  -0.4119  -0.3898   0.0368   0.1236   0.1506   0.2601   0.3124

          k = 0.0000 0.2436-0.7236 ( 25694 PWs)   bands (ev):

   -24.4244 -24.4244  -9.9910  -9.9910  -9.6711  -9.6710  -9.6532  -9.6532
    -5.3852  -5.3852  -4.8349  -4.8348  -1.4161  -1.4154  -1.1488  -1.1481
    -0.2710  -0.2709  -0.2575  -0.2557   0.0875   0.0876   0.2463   0.2466

          k = 0.0000-0.4871 0.0000 ( 25634 PWs)   bands (ev):

   -24.4346 -24.4346  -9.7907  -9.7907  -9.7160  -9.7160  -9.5676  -9.5676
    -5.6174  -5.6174  -5.0140  -5.0140  -1.3116  -1.3116  -0.6972  -0.6972
    -0.4660  -0.4660  -0.0156  -0.0156   0.1221   0.1221   0.2373   0.2373

          k = 0.0000-0.4871 0.3618 ( 25690 PWs)   bands (ev):

   -24.4295 -24.4295  -9.8333  -9.8333  -9.7042  -9.7042  -9.6694  -9.6694
    -5.4560  -5.4560  -4.9607  -4.9607  -1.3204  -1.3204  -0.9291  -0.9291
    -0.3735  -0.3735  -0.1020  -0.1020   0.0353   0.0353   0.2397   0.2397

          k = 0.0000-0.4871-0.7236 ( 25740 PWs)   bands (ev):

   -24.4244 -24.4244 -10.0012 -10.0012  -9.6604  -9.6604  -9.6500  -9.6500
    -5.4931  -5.4931  -4.7198  -4.7198  -1.4974  -1.4974  -0.9368  -0.9368
    -0.3345  -0.3345  -0.1757  -0.1757  -0.0931  -0.0931   0.2803   0.2803

          k = 0.2497 0.0000 0.0000 ( 25651 PWs)   bands (ev):

   -24.4369 -24.4323  -9.8495  -9.7953  -9.6907  -9.6657  -9.5852  -9.5504
    -6.0676  -5.4097  -4.8404  -4.7858  -1.7230  -0.9424  -0.9292  -0.7925
    -0.2829  -0.2525  -0.1797  -0.1286  -0.0261  -0.0193   0.3363   0.3736

          k = 0.2497 0.0000 0.3618 ( 25668 PWs)   bands (ev):

   -24.4311 -24.4279  -9.8275  -9.8114  -9.7671  -9.7165  -9.6619  -9.6337
    -5.6673  -5.1493  -4.9736  -4.9582  -1.5186  -1.2997  -1.1369  -0.6825
    -0.6512  -0.4138  -0.1969  -0.0674   0.0492   0.1805   0.3509   0.3760

          k = 0.2497 0.0000-0.7236 ( 25662 PWs)   bands (ev):

   -24.4244 -24.4244  -9.9945  -9.9944  -9.6751  -9.6751  -9.6508  -9.6508
    -5.2061  -5.2057  -4.9970  -4.9967  -1.7438  -1.7434  -0.9109  -0.9106
    -0.3462  -0.3459  -0.0610  -0.0595   0.0642   0.0643   0.2898   0.2902

          k = 0.2497 0.2436 0.0000 ( 25666 PWs)   bands (ev):

   -24.4362 -24.4329  -9.8701  -9.7768  -9.7290  -9.6326  -9.5799  -9.5553
    -5.9374  -5.3736  -5.0400  -4.8288  -1.4659  -1.1656  -0.9460  -0.5148
    -0.4352  -0.3961  -0.1325   0.0144   0.0231   0.1015   0.1633   0.3002

          k = 0.2497 0.2436 0.3618 ( 25654 PWs)   bands (ev):

   -24.4306 -24.4283  -9.8284  -9.7976  -9.7952  -9.7031  -9.6677  -9.6294
    -5.5849  -5.1703  -5.0649  -4.9570  -1.4830  -1.2460  -1.1862  -0.6747
    -0.5089  -0.3515  -0.2550  -0.0527   0.0357   0.1434   0.2790   0.3570

          k = 0.2497 0.2436-0.7236 ( 25680 PWs)   bands (ev):

   -24.4244 -24.4244 -10.0005  -9.9816  -9.6903  -9.6613  -9.6560  -9.6517
    -5.3888  -5.2451  -4.9528  -4.8058  -1.7206  -1.6530  -0.9699  -0.8941
    -0.3859  -0.3837  -0.0812  -0.0406   0.0909   0.1171   0.2436   0.2731

          k = 0.2497-0.4871 0.0000 ( 25658 PWs)   bands (ev):

   -24.4345 -24.4345  -9.8487  -9.8487  -9.6592  -9.6592  -9.5674  -9.5674
    -5.6066  -5.6066  -5.0185  -5.0185  -1.2197  -1.2197  -0.7091  -0.7091
    -0.4960  -0.4960  -0.0663  -0.0663   0.1511   0.1511   0.1679   0.1679

          k = 0.2497-0.4871 0.3618 ( 25666 PWs)   bands (ev):

   -24.4295 -24.4295  -9.8248  -9.8248  -9.7478  -9.7478  -9.6398  -9.6398
    -5.3780  -5.3780  -5.0245  -5.0245  -1.3948  -1.3948  -0.8877  -0.8877
    -0.3735  -0.3735  -0.0803  -0.0803   0.0426   0.0426   0.2556   0.2556

          k = 0.2497-0.4871-0.7236 ( 25656 PWs)   bands (ev):

   -24.4244 -24.4244  -9.9884  -9.9884  -9.6770  -9.6770  -9.6557  -9.6557
    -5.4040  -5.4040  -4.7856  -4.7856  -1.6201  -1.6201  -0.9988  -0.9988
    -0.2835  -0.2835  -0.1587  -0.1587   0.0963   0.0963   0.2660   0.2660

          k =-0.4994 0.0000 0.0000 ( 25710 PWs)   bands (ev):

   -24.4345 -24.4345  -9.7762  -9.7762  -9.7366  -9.7366  -9.5677  -9.5677
    -5.6873  -5.6873  -4.8803  -4.8803  -1.3320  -1.3320  -0.5976  -0.5976
    -0.2465  -0.2465  -0.2451  -0.2451  -0.1385  -0.1385   0.2380   0.2380

          k =-0.4994 0.0000 0.3618 ( 25604 PWs)   bands (ev):

   -24.4295 -24.4295  -9.8354  -9.8354  -9.7202  -9.7202  -9.6596  -9.6596
    -5.3558  -5.3558  -5.0199  -5.0199  -1.4397  -1.4397  -0.9368  -0.9368
    -0.3844  -0.3844  -0.2053  -0.2053   0.1471   0.1471   0.3370   0.3370

          k =-0.4994 0.0000-0.7236 ( 25592 PWs)   bands (ev):

   -24.4244 -24.4244 -10.0080 -10.0080  -9.6677  -9.6677  -9.6462  -9.6462
    -5.2331  -5.2331  -4.9438  -4.9438  -1.9396  -1.9396  -0.6609  -0.6609
    -0.3579  -0.3579  -0.1865  -0.1865   0.2347   0.2347   0.2587   0.2587

          k =-0.4994 0.2436 0.0000 ( 25644 PWs)   bands (ev):

   -24.4345 -24.4345  -9.8476  -9.8476  -9.6635  -9.6635  -9.5674  -9.5674
    -5.6463  -5.6463  -4.9470  -4.9470  -1.2395  -1.2395  -0.6044  -0.6044
    -0.4325  -0.4325  -0.2749  -0.2749   0.0676   0.0676   0.2177   0.2177

          k =-0.4994 0.2436 0.3618 ( 25652 PWs)   bands (ev):

   -24.4295 -24.4295  -9.8261  -9.8261  -9.7517  -9.7517  -9.6387  -9.6387
    -5.3130  -5.3130  -5.0688  -5.0688  -1.4446  -1.4446  -0.9188  -0.9188
    -0.3486  -0.3486  -0.1571  -0.1571   0.1371   0.1371   0.2766   0.2766

          k =-0.4994 0.2436-0.7236 ( 25680 PWs)   bands (ev):

   -24.4244 -24.4244  -9.9921  -9.9921  -9.6791  -9.6791  -9.6550  -9.6550
    -5.2628  -5.2628  -4.9087  -4.9087  -1.8498  -1.8498  -0.8503  -0.8503
    -0.3119  -0.3119  -0.1278  -0.1278   0.1856   0.1856   0.3104   0.3104

          k =-0.4994-0.4871 0.0000 ( 25688 PWs)   bands (ev):

   -24.4345 -24.4345  -9.8833  -9.8833  -9.6260  -9.6260  -9.5671  -9.5671
    -5.5969  -5.5969  -5.0213  -5.0213  -1.1058  -1.1058  -0.7438  -0.7438
    -0.5235  -0.5235  -0.0883  -0.0883   0.0698   0.0698   0.1777   0.1777

          k =-0.4994-0.4871 0.3618 ( 25664 PWs)   bands (ev):

   -24.4295 -24.4295  -9.8086  -9.8086  -9.7836  -9.7836  -9.6257  -9.6257
    -5.2375  -5.2375  -5.1502  -5.1502  -1.4303  -1.4303  -0.9662  -0.9662
    -0.2017  -0.2017  -0.0785  -0.0785   0.0618   0.0618   0.1850   0.1850

          k =-0.4994-0.4871-0.7236 ( 25624 PWs)   bands (ev):

   -24.4244 -24.4244  -9.9742  -9.9742  -9.6961  -9.6961  -9.6601  -9.6601
    -5.2879  -5.2879  -4.8781  -4.8781  -1.7084  -1.7084  -1.1167  -1.1167
    -0.1091  -0.1091  -0.0690  -0.0690   0.0780   0.0780   0.2848   0.2848

     highest occupied level (ev):     0.4251

!    total energy              =    -156.46999175 Ry
     estimated scf accuracy    <          2.7E-11 Ry

     The total energy is the sum of the following terms:
     one-electron contribution =     -26.16805902 Ry
     hartree contribution      =      26.71174789 Ry
     xc contribution           =     -48.98751024 Ry
     ewald contribution        =    -108.02617037 Ry

     convergence has been achieved in  10 iterations

     Forces acting on atoms (cartesian axes, Ry/au):

     atom    1 type  2   force =     0.00000000    0.00000000    0.00000498
     atom    2 type  2   force =     0.00000000    0.00000000   -0.00000498
     atom    3 type  1   force =     0.00048211    0.00136035   -0.00000842
     atom    4 type  1   force =    -0.00048211   -0.00136035   -0.00000842
     atom    5 type  1   force =     0.00048211   -0.00136035    0.00000842
     atom    6 type  1   force =    -0.00048211    0.00136035    0.00000842
     atom    7 type  3   force =     0.00176892    0.00018446   -0.00001377
     atom    8 type  3   force =    -0.00176892   -0.00018446   -0.00001377
     atom    9 type  3   force =     0.00176892   -0.00018446    0.00001377
     atom   10 type  3   force =    -0.00176892    0.00018446    0.00001377
     atom   11 type  3   force =    -0.00090194    0.00012854    0.00000192
     atom   12 type  3   force =     0.00090194   -0.00012854    0.00000192
     atom   13 type  3   force =    -0.00090194   -0.00012854   -0.00000192
     atom   14 type  3   force =     0.00090194    0.00012854   -0.00000192
     atom   15 type  3   force =     0.00042217    0.00120484    0.00081850
     atom   16 type  3   force =    -0.00042217   -0.00120484    0.00081850
     atom   17 type  3   force =     0.00042217   -0.00120484   -0.00081850
     atom   18 type  3   force =    -0.00042217    0.00120484   -0.00081850
     atom   19 type  3   force =    -0.00038845   -0.00121534   -0.00082737
     atom   20 type  3   force =     0.00038845    0.00121534   -0.00082737
     atom   21 type  3   force =    -0.00038845    0.00121534    0.00082737
     atom   22 type  3   force =     0.00038845   -0.00121534    0.00082737

     Total force =     0.006539     Total SCF correction =     0.000002


     Computing stress (Cartesian axis) and pressure

          total   stress  (Ry/bohr**3)                   (kbar)     P=      -16.08
  -0.00010131   0.00000000   0.00000000          -14.90        0.00        0.00
   0.00000000  -0.00010228   0.00000000            0.00      -15.05        0.00
   0.00000000   0.00000000  -0.00012431            0.00        0.00      -18.29

     Volume is kept fixed: isostatic pressure set to zero
     Energy error            =      2.6E-03 Ry
     Gradient error          =      1.8E-03 Ry/Bohr
     Cell gradient error     =      2.2E+00 kbar

     number of scf cycles    =   3
     number of bfgs steps    =   2

     enthalpy           old  =    -156.4673737584 Ry
     enthalpy           new  =    -156.4699917452 Ry

     CASE: enthalpy          _new < enthalpy          _old

     new trust radius        =       0.0042489303 bohr
ibrav =      8
 celldm(1) =     12.90530461
 celldm(2) =      1.02525477
 celldm(3) =      0.68964876
Input lattice vectors:
     1.00142811     0.00000000     0.00000000
     0.00000000     1.02671895     0.00000000
     0.00000000     0.00000000     0.69063366
New lattice vectors in INITIAL alat:
     1.00142811     0.00000000     0.00000000
     0.00000000     1.02671895     0.00000000
     0.00000000     0.00000000     0.69063366
New lattice vectors in NEW alat (for information only):
     1.00000000     0.00000000     0.00000000
     0.00000000     1.02525477     0.00000000
     0.00000000     0.00000000     0.68964876
Discrepancy in bohr =     0.000000    0.000000    0.000000
     new conv_thr            =            1.0E-10 Ry

     new unit-cell volume =   1519.72336 a.u.^3 (   225.19977 Ang^3 )
     density =      2.46298 g/cm^3

CELL_PARAMETERS (alat= 12.88690067)
   1.001428112   0.000000000   0.000000000
   0.000000000   1.026718946   0.000000000
   0.000000000   0.000000000   0.690633659

ATOMIC_POSITIONS (crystal)
Ba               0.5000000000        0.5000000000        0.5001032323
Ba               0.0000000000        0.0000000000        0.9998967677
B                0.6104241237        0.2398471345        0.0000598278
B                0.3895758763        0.7601528655        0.0000598278
B                0.1104241237        0.2601528655        0.4999401722
B                0.8895758763        0.7398471345        0.4999401722
H                0.4376251613        0.2913807601        0.0002215580
H                0.5623748387        0.7086192399        0.0002215580
H                0.9376251613        0.2086192399        0.4997784420
H                0.0623748387        0.7913807601        0.4997784420
H                0.7197501925        0.3810232929       -0.0000055329
H                0.2802498075        0.6189767071       -0.0000055329
H                0.2197501925        0.1189767071        0.5000055329
H                0.7802498075        0.8810232929        0.5000055329
H                0.6389234998        0.1441240855        0.7848362085
H                0.3610765002        0.8558759145        0.7848362085
H                0.1389234998        0.3558759145        0.7151637915
H                0.8610765002        0.6441240855        0.7151637915
H                0.3608766959        0.8559203997        0.2151829991
H                0.6391233041        0.1440796003        0.2151829991
H                0.8608766959        0.6440796003        0.2848170009
H                0.1391233041        0.3559203997        0.2848170009



     Writing config-only to output data dir ./pwscf.save/ :
     XML data file
     NEW-OLD atomic charge density approx. for the potential

     total cpu time spent up to now is      696.3 secs

     Self-consistent Calculation

     iteration #  1     ecut=   100.00 Ry     beta= 0.70
     Davidson diagonalization with overlap
     ethr =  1.00E-06,  avg # of iterations =  2.0

     Threshold (ethr) on eigenvalues was too large:
     Diagonalizing with lowered threshold

     Davidson diagonalization with overlap
     ethr =  8.49E-08,  avg # of iterations =  2.0

     total cpu time spent up to now is      729.8 secs

     total energy              =    -156.47004588 Ry
     estimated scf accuracy    <       0.00005511 Ry

     iteration #  2     ecut=   100.00 Ry     beta= 0.70
     Davidson diagonalization with overlap
     ethr =  1.15E-07,  avg # of iterations =  2.0

     total cpu time spent up to now is      746.8 secs

     total energy              =    -156.47006154 Ry
     estimated scf accuracy    <       0.00001129 Ry

     iteration #  3     ecut=   100.00 Ry     beta= 0.70
     Davidson diagonalization with overlap
     ethr =  2.35E-08,  avg # of iterations =  2.0

     total cpu time spent up to now is      763.8 secs

     total energy              =    -156.47006305 Ry
     estimated scf accuracy    <       0.00000017 Ry

     iteration #  4     ecut=   100.00 Ry     beta= 0.70
     Davidson diagonalization with overlap
     ethr =  3.56E-10,  avg # of iterations =  3.0

     total cpu time spent up to now is      784.1 secs

     total energy              =    -156.47006313 Ry
     estimated scf accuracy    <       0.00000009 Ry

     iteration #  5     ecut=   100.00 Ry     beta= 0.70
     Davidson diagonalization with overlap
     ethr =  1.85E-10,  avg # of iterations =  2.0

     total cpu time spent up to now is      801.2 secs

     total energy              =    -156.47006314 Ry
     estimated scf accuracy    <          1.5E-09 Ry

     iteration #  6     ecut=   100.00 Ry     beta= 0.70
     Davidson diagonalization with overlap
     ethr =  3.09E-12,  avg # of iterations =  6.0

     total cpu time spent up to now is      828.2 secs

     total energy              =    -156.47006315 Ry
     estimated scf accuracy    <          1.0E-09 Ry

     iteration #  7     ecut=   100.00 Ry     beta= 0.70
     Davidson diagonalization with overlap
     ethr =  2.07E-12,  avg # of iterations =  2.0

     total cpu time spent up to now is      845.1 secs

     End of self-consistent calculation

          k = 0.0000 0.0000 0.0000 ( 25671 PWs)   bands (ev):

   -24.4403 -24.4338  -9.8835  -9.8140  -9.6600  -9.6298  -9.5948  -9.5457
    -6.2403  -5.3768  -4.8234  -4.6659  -1.9018  -1.0550  -1.0376  -0.6899
    -0.3164  -0.3006  -0.2774  -0.1425   0.0145   0.3586   0.3824   0.4140

          k = 0.0000 0.0000 0.3620 ( 25690 PWs)   bands (ev):

   -24.4342 -24.4296  -9.8054  -9.8019  -9.7804  -9.7593  -9.6458  -9.6295
    -5.8062  -5.1607  -4.9612  -4.8570  -1.5534  -1.3203  -0.8631  -0.8397
    -0.7078  -0.6049  -0.2742  -0.0158   0.1857   0.1970   0.2755   0.4077

          k = 0.0000 0.0000-0.7240 ( 25628 PWs)   bands (ev):

   -24.4268 -24.4268  -9.9843  -9.9842  -9.6872  -9.6872  -9.6562  -9.6562
    -5.1706  -5.1702  -5.0768  -5.0763  -1.3146  -1.3141  -1.2988  -1.2974
    -0.3394  -0.3390  -0.3059  -0.3040   0.2268   0.2268   0.2451   0.2454

          k = 0.0000 0.2435 0.0000 ( 25658 PWs)   bands (ev):

   -24.4393 -24.4347  -9.8592  -9.7905  -9.6992  -9.6570  -9.5874  -9.5527
    -6.0666  -5.3021  -5.0646  -4.7768  -1.5836  -1.2052  -1.1289  -0.4033
    -0.4008  -0.3999  -0.1083   0.0033   0.0638   0.0921   0.2794   0.3561

          k = 0.0000 0.2435 0.3620 ( 25702 PWs)   bands (ev):

   -24.4336 -24.4303  -9.8386  -9.8050  -9.7468  -9.7383  -9.6518  -9.6460
    -5.7087  -5.2222  -5.0027  -4.8957  -1.3774  -1.3427  -1.1357  -0.6232
    -0.5905  -0.4185  -0.3937   0.0306   0.1159   0.1415   0.2535   0.3039

          k = 0.0000 0.2435-0.7240 ( 25694 PWs)   bands (ev):

   -24.4268 -24.4268  -9.9952  -9.9951  -9.6732  -9.6732  -9.6556  -9.6556
    -5.3949  -5.3949  -4.8448  -4.8448  -1.4173  -1.4166  -1.1484  -1.1477
    -0.2780  -0.2779  -0.2633  -0.2615   0.0810   0.0811   0.2369   0.2371

          k = 0.0000-0.4870 0.0000 ( 25634 PWs)   bands (ev):

   -24.4370 -24.4370  -9.7937  -9.7937  -9.7184  -9.7184  -9.5699  -9.5699
    -5.6260  -5.6260  -5.0246  -5.0246  -1.3150  -1.3150  -0.7039  -0.7039
    -0.4670  -0.4670  -0.0250  -0.0250   0.1196   0.1196   0.2292   0.2292

          k = 0.0000-0.4870 0.3620 ( 25690 PWs)   bands (ev):

   -24.4319 -24.4319  -9.8365  -9.8365  -9.7071  -9.7071  -9.6718  -9.6718
    -5.4644  -5.4644  -4.9715  -4.9715  -1.3220  -1.3220  -0.9321  -0.9321
    -0.3783  -0.3783  -0.1064  -0.1064   0.0259   0.0259   0.2325   0.2325

          k = 0.0000-0.4870-0.7240 ( 25740 PWs)   bands (ev):

   -24.4268 -24.4268 -10.0053 -10.0053  -9.6626  -9.6626  -9.6525  -9.6525
    -5.5029  -5.5029  -4.7294  -4.7294  -1.4986  -1.4986  -0.9363  -0.9363
    -0.3419  -0.3419  -0.1814  -0.1814  -0.1000  -0.1000   0.2712   0.2712

          k = 0.2496 0.0000 0.0000 ( 25651 PWs)   bands (ev):

   -24.4393 -24.4347  -9.8525  -9.7980  -9.6934  -9.6682  -9.5874  -9.5527
    -6.0751  -5.4203  -4.8510  -4.7966  -1.7258  -0.9458  -0.9350  -0.7987
    -0.2832  -0.2552  -0.1815  -0.1370  -0.0280  -0.0262   0.3271   0.3624

          k = 0.2496 0.0000 0.3620 ( 25668 PWs)   bands (ev):

   -24.4335 -24.4303  -9.8305  -9.8145  -9.7700  -9.7193  -9.6644  -9.6362
    -5.6744  -5.1589  -4.9849  -4.9697  -1.5184  -1.3024  -1.1376  -0.6866
    -0.6567  -0.4175  -0.2033  -0.0745   0.0439   0.1737   0.3410   0.3683

          k = 0.2496 0.0000-0.7240 ( 25662 PWs)   bands (ev):

   -24.4268 -24.4268  -9.9987  -9.9986  -9.6773  -9.6772  -9.6533  -9.6532
    -5.2167  -5.2164  -5.0063  -5.0060  -1.7431  -1.7426  -0.9123  -0.9120
    -0.3526  -0.3523  -0.0673  -0.0658   0.0563   0.0564   0.2816   0.2820

          k = 0.2496 0.2435 0.0000 ( 25666 PWs)   bands (ev):

   -24.4386 -24.4354  -9.8730  -9.7799  -9.7314  -9.6352  -9.5822  -9.5576
    -5.9455  -5.3845  -5.0493  -4.8393  -1.4700  -1.1695  -0.9509  -0.5212
    -0.4361  -0.3973  -0.1407   0.0120   0.0142   0.0991   0.1546   0.2911

          k = 0.2496 0.2435 0.3620 ( 25654 PWs)   bands (ev):

   -24.4331 -24.4308  -9.8315  -9.8009  -9.7978  -9.7061  -9.6701  -9.6318
    -5.5925  -5.1802  -5.0751  -4.9683  -1.4832  -1.2470  -1.1894  -0.6788
    -0.5142  -0.3555  -0.2607  -0.0585   0.0277   0.1360   0.2715   0.3490

          k = 0.2496 0.2435-0.7240 ( 25680 PWs)   bands (ev):

   -24.4268 -24.4268 -10.0046  -9.9859  -9.6924  -9.6636  -9.6584  -9.6541
    -5.3992  -5.2553  -4.9625  -4.8152  -1.7202  -1.6523  -0.9715  -0.8952
    -0.3928  -0.3902  -0.0863  -0.0466   0.0812   0.1097   0.2374   0.2630

          k = 0.2496-0.4870 0.0000 ( 25658 PWs)   bands (ev):

   -24.4370 -24.4370  -9.8516  -9.8516  -9.6618  -9.6618  -9.5697  -9.5697
    -5.6160  -5.6160  -5.0282  -5.0282  -1.2241  -1.2241  -0.7155  -0.7155
    -0.4968  -0.4968  -0.0744  -0.0744   0.1485   0.1485   0.1593   0.1593

          k = 0.2496-0.4870 0.3620 ( 25666 PWs)   bands (ev):

   -24.4319 -24.4319  -9.8278  -9.8278  -9.7508  -9.7508  -9.6422  -9.6422
    -5.3868  -5.3868  -5.0350  -5.0350  -1.3956  -1.3956  -0.8918  -0.8918
    -0.3779  -0.3779  -0.0863  -0.0863   0.0344   0.0344   0.2486   0.2486

          k = 0.2496-0.4870-0.7240 ( 25656 PWs)   bands (ev):

   -24.4268 -24.4268  -9.9926  -9.9926  -9.6791  -9.6791  -9.6581  -9.6581
    -5.4142  -5.4142  -4.7952  -4.7952  -1.6199  -1.6199  -1.0000  -1.0000
    -0.2904  -0.2904  -0.1646  -0.1646   0.0884   0.0884   0.2577   0.2577

          k =-0.4993 0.0000 0.0000 ( 25710 PWs)   bands (ev):

   -24.4370 -24.4370  -9.7793  -9.7793  -9.7389  -9.7389  -9.5699  -9.5699
    -5.6962  -5.6962  -4.8909  -4.8909  -1.3358  -1.3358  -0.6021  -0.6021
    -0.2544  -0.2544  -0.2454  -0.2454  -0.1415  -0.1415   0.2274   0.2274

          k =-0.4993 0.0000 0.3620 ( 25604 PWs)   bands (ev):

   -24.4319 -24.4319  -9.8385  -9.8385  -9.7229  -9.7229  -9.6621  -9.6621
    -5.3643  -5.3643  -5.0310  -5.0310  -1.4395  -1.4395  -0.9408  -0.9408
    -0.3898  -0.3898  -0.2116  -0.2116   0.1414   0.1414   0.3280   0.3280

          k =-0.4993 0.0000-0.7240 ( 25592 PWs)   bands (ev):

   -24.4268 -24.4268 -10.0121 -10.0121  -9.6699  -9.6699  -9.6486  -9.6486
    -5.2449  -5.2449  -4.9522  -4.9522  -1.9384  -1.9384  -0.6628  -0.6628
    -0.3643  -0.3643  -0.1934  -0.1934   0.2284   0.2284   0.2491   0.2491

          k =-0.4993 0.2435 0.0000 ( 25644 PWs)   bands (ev):

   -24.4370 -24.4370  -9.8504  -9.8504  -9.6660  -9.6660  -9.5697  -9.5697
    -5.6557  -5.6557  -4.9569  -4.9569  -1.2441  -1.2441  -0.6097  -0.6097
    -0.4333  -0.4333  -0.2820  -0.2820   0.0650   0.0650   0.2078   0.2078

          k =-0.4993 0.2435 0.3620 ( 25652 PWs)   bands (ev):

   -24.4319 -24.4319  -9.8291  -9.8291  -9.7546  -9.7546  -9.6411  -9.6411
    -5.3218  -5.3218  -5.0794  -5.0794  -1.4447  -1.4447  -0.9230  -0.9230
    -0.3545  -0.3545  -0.1629  -0.1629   0.1310   0.1310   0.2682   0.2682

          k =-0.4993 0.2435-0.7240 ( 25680 PWs)   bands (ev):

   -24.4268 -24.4268  -9.9962  -9.9962  -9.6812  -9.6812  -9.6574  -9.6574
    -5.2739  -5.2739  -4.9176  -4.9176  -1.8487  -1.8487  -0.8522  -0.8522
    -0.3188  -0.3188  -0.1342  -0.1342   0.1771   0.1771   0.3029   0.3029

          k =-0.4993-0.4870 0.0000 ( 25688 PWs)   bands (ev):

   -24.4370 -24.4370  -9.8861  -9.8861  -9.6285  -9.6285  -9.5694  -9.5694
    -5.6072  -5.6072  -5.0301  -5.0301  -1.1120  -1.1120  -0.7484  -0.7484
    -0.5242  -0.5242  -0.0969  -0.0969   0.0620   0.0620   0.1748   0.1748

          k =-0.4993-0.4870 0.3620 ( 25664 PWs)   bands (ev):

   -24.4319 -24.4319  -9.8111  -9.8111  -9.7870  -9.7870  -9.6281  -9.6281
    -5.2471  -5.2471  -5.1600  -5.1600  -1.4306  -1.4306  -0.9701  -0.9701
    -0.2071  -0.2071  -0.0862  -0.0862   0.0541   0.0541   0.1795   0.1795

          k =-0.4993-0.4870-0.7240 ( 25624 PWs)   bands (ev):

   -24.4268 -24.4268  -9.9785  -9.9785  -9.6982  -9.6982  -9.6624  -9.6624
    -5.2986  -5.2986  -4.8874  -4.8874  -1.7075  -1.7075  -1.1182  -1.1182
    -0.1151  -0.1151  -0.0774  -0.0774   0.0692   0.0692   0.2784   0.2784

     highest occupied level (ev):     0.4140

!    total energy              =    -156.47006315 Ry
     estimated scf accuracy    <          3.2E-11 Ry

     The total energy is the sum of the following terms:
     one-electron contribution =     -26.30065549 Ry
     hartree contribution      =      26.77812731 Ry
     xc contribution           =     -49.00164071 Ry
     ewald contribution        =    -107.94589426 Ry

     convergence has been achieved in   7 iterations

     Forces acting on atoms (cartesian axes, Ry/au):

     atom    1 type  2   force =     0.00000000    0.00000000    0.00000370
     atom    2 type  2   force =     0.00000000    0.00000000   -0.00000370
     atom    3 type  1   force =     0.00048691    0.00104062   -0.00000789
     atom    4 type  1   force =    -0.00048691   -0.00104062   -0.00000789
     atom    5 type  1   force =     0.00048691   -0.00104062    0.00000789
     atom    6 type  1   force =    -0.00048691    0.00104062    0.00000789
     atom    7 type  3   force =     0.00048231    0.00055868   -0.00001367
     atom    8 type  3   force =    -0.00048231   -0.00055868   -0.00001367
     atom    9 type  3   force =     0.00048231   -0.00055868    0.00001367
     atom   10 type  3   force =    -0.00048231    0.00055868    0.00001367
     atom   11 type  3   force =     0.00001725    0.00132463    0.00000118
     atom   12 type  3   force =    -0.00001725   -0.00132463    0.00000118
     atom   13 type  3   force =     0.00001725   -0.00132463   -0.00000118
     atom   14 type  3   force =    -0.00001725    0.00132463   -0.00000118
     atom   15 type  3   force =     0.00062228    0.00056633   -0.00041113
     atom   16 type  3   force =    -0.00062228   -0.00056633   -0.00041113
     atom   17 type  3   force =     0.00062228   -0.00056633    0.00041113
     atom   18 type  3   force =    -0.00062228    0.00056633    0.00041113
     atom   19 type  3   force =    -0.00059207   -0.00057460    0.00040324
     atom   20 type  3   force =     0.00059207    0.00057460    0.00040324
     atom   21 type  3   force =    -0.00059207    0.00057460   -0.00040324
     atom   22 type  3   force =     0.00059207   -0.00057460   -0.00040324

     Total force =     0.004622     Total SCF correction =     0.000003


     Computing stress (Cartesian axis) and pressure

          total   stress  (Ry/bohr**3)                   (kbar)     P=      -14.40
  -0.00009086   0.00000000   0.00000000          -13.37        0.00        0.00
   0.00000000  -0.00009210   0.00000000            0.00      -13.55        0.00
   0.00000000   0.00000000  -0.00011080            0.00        0.00      -16.30

     Volume is kept fixed: isostatic pressure set to zero
     Energy error            =      7.1E-05 Ry
     Gradient error          =      1.3E-03 Ry/Bohr
     Cell gradient error     =      1.9E+00 kbar

     number of scf cycles    =   4
     number of bfgs steps    =   3

     enthalpy           old  =    -156.4699917452 Ry
     enthalpy           new  =    -156.4700631459 Ry

     CASE: enthalpy          _new < enthalpy          _old

     new trust radius        =       0.0049464452 bohr
ibrav =      8
 celldm(1) =     12.90976447
 celldm(2) =      1.02519597
 celldm(3) =      0.68897377
Input lattice vectors:
     1.00177419     0.00000000     0.00000000
     0.00000000     1.02701486     0.00000000
     0.00000000     0.00000000     0.69019614
New lattice vectors in INITIAL alat:
     1.00177419     0.00000000     0.00000000
     0.00000000     1.02701486     0.00000000
     0.00000000     0.00000000     0.69019614
New lattice vectors in NEW alat (for information only):
     1.00000000     0.00000000     0.00000000
     0.00000000     1.02519597     0.00000000
     0.00000000     0.00000000     0.68897377
Discrepancy in bohr =     0.000000    0.000000    0.000000
     new conv_thr            =            7.1E-12 Ry

     new unit-cell volume =   1519.72336 a.u.^3 (   225.19977 Ang^3 )
     density =      2.46298 g/cm^3

CELL_PARAMETERS (alat= 12.88690067)
   1.001774190   0.000000000   0.000000000
   0.000000000   1.027014865   0.000000000
   0.000000000   0.000000000   0.690196143

ATOMIC_POSITIONS (crystal)
Ba               0.5000000000        0.5000000000        0.5001040915
Ba               0.0000000000        0.0000000000        0.9998959085
B                0.6104931168        0.2400072299        0.0000581562
B                0.3895068832        0.7599927701        0.0000581562
B                0.1104931168        0.2599927701        0.4999418438
B                0.8895068832        0.7400072299        0.4999418438
H                0.4378045257        0.2914263304        0.0002187090
H                0.5621954743        0.7085736696        0.0002187090
H                0.9378045257        0.2085736696        0.4997812910
H                0.0621954743        0.7914263304        0.4997812910
H                0.7196750580        0.3811071998       -0.0000052121
H                0.2803249420        0.6188928002       -0.0000052121
H                0.2196750580        0.1188928002        0.5000052121
H                0.7803249420        0.8811071998        0.5000052121
H                0.6389941386        0.1442604976        0.7849030163
H                0.3610058614        0.8557395024        0.7849030163
H                0.1389941386        0.3557395024        0.7150969837
H                0.8610058614        0.6442604976        0.7150969837
H                0.3608105999        0.8557827122        0.2151145325
H                0.6391894001        0.1442172878        0.2151145325
H                0.8608105999        0.6442172878        0.2848854675
H                0.1391894001        0.3557827122        0.2848854675



     Writing config-only to output data dir ./pwscf.save/ :
     XML data file
     NEW-OLD atomic charge density approx. for the potential

     total cpu time spent up to now is      877.4 secs

     Self-consistent Calculation

     iteration #  1     ecut=   100.00 Ry     beta= 0.70
     Davidson diagonalization with overlap
     ethr =  1.00E-06,  avg # of iterations =  2.0

     Threshold (ethr) on eigenvalues was too large:
     Diagonalizing with lowered threshold

     Davidson diagonalization with overlap
     ethr =  1.55E-08,  avg # of iterations =  3.0

     total cpu time spent up to now is      912.3 secs

     total energy              =    -156.47010610 Ry
     estimated scf accuracy    <       0.00001019 Ry

     iteration #  2     ecut=   100.00 Ry     beta= 0.70
     Davidson diagonalization with overlap
     ethr =  2.12E-08,  avg # of iterations =  2.0

     total cpu time spent up to now is      929.3 secs

     total energy              =    -156.47010844 Ry
     estimated scf accuracy    <       0.00000114 Ry

     iteration #  3     ecut=   100.00 Ry     beta= 0.70
     Davidson diagonalization with overlap
     ethr =  2.38E-09,  avg # of iterations =  2.0

     total cpu time spent up to now is      946.3 secs

     total energy              =    -156.47010861 Ry
     estimated scf accuracy    <       0.00000003 Ry

     iteration #  4     ecut=   100.00 Ry     beta= 0.70
     Davidson diagonalization with overlap
     ethr =  5.87E-11,  avg # of iterations =  4.7

     total cpu time spent up to now is      966.9 secs

     total energy              =    -156.47010862 Ry
     estimated scf accuracy    <          5.7E-09 Ry

     iteration #  5     ecut=   100.00 Ry     beta= 0.70
     Davidson diagonalization with overlap
     ethr =  1.18E-11,  avg # of iterations =  4.2

     total cpu time spent up to now is      987.0 secs

     total energy              =    -156.47010862 Ry
     estimated scf accuracy    <          1.1E-10 Ry

     iteration #  6     ecut=   100.00 Ry     beta= 0.70
     Davidson diagonalization with overlap
     ethr =  2.35E-13,  avg # of iterations =  6.4

     total cpu time spent up to now is     1016.9 secs

     End of self-consistent calculation

          k = 0.0000 0.0000 0.0000 ( 25671 PWs)   bands (ev):

   -24.4400 -24.4336  -9.8841  -9.8143  -9.6603  -9.6299  -9.5945  -9.5456
    -6.2430  -5.3808  -4.8271  -4.6703  -1.9049  -1.0574  -1.0395  -0.6951
    -0.3159  -0.3056  -0.2742  -0.1423   0.0170   0.3544   0.3786   0.4070

          k = 0.0000 0.0000 0.3622 ( 25690 PWs)   bands (ev):

   -24.4340 -24.4294  -9.8056  -9.8029  -9.7815  -9.7594  -9.6459  -9.6294
    -5.8077  -5.1632  -4.9658  -4.8620  -1.5547  -1.3220  -0.8654  -0.8420
    -0.7083  -0.6042  -0.2761  -0.0177   0.1826   0.1916   0.2732   0.4020

          k = 0.0000 0.0000-0.7244 ( 25628 PWs)   bands (ev):

   -24.4265 -24.4265  -9.9864  -9.9863  -9.6869  -9.6868  -9.6562  -9.6562
    -5.1715  -5.1711  -5.0823  -5.0818  -1.3139  -1.3134  -1.3006  -1.2992
    -0.3419  -0.3415  -0.3080  -0.3061   0.2208   0.2209   0.2419   0.2421

          k = 0.0000 0.2434 0.0000 ( 25658 PWs)   bands (ev):

   -24.4391 -24.4345  -9.8598  -9.7909  -9.6994  -9.6571  -9.5872  -9.5526
    -6.0695  -5.3068  -5.0673  -4.7810  -1.5875  -1.2076  -1.1311  -0.4056
    -0.4018  -0.3978  -0.1137   0.0042   0.0577   0.0937   0.2753   0.3522

          k = 0.0000 0.2434 0.3622 ( 25702 PWs)   bands (ev):

   -24.4333 -24.4300  -9.8393  -9.8060  -9.7474  -9.7384  -9.6520  -9.6459
    -5.7105  -5.2250  -5.0067  -4.9003  -1.3790  -1.3443  -1.1376  -0.6231
    -0.5917  -0.4218  -0.3946   0.0282   0.1124   0.1359   0.2511   0.2996

          k = 0.0000 0.2434-0.7244 ( 25694 PWs)   bands (ev):

   -24.4265 -24.4265  -9.9973  -9.9972  -9.6729  -9.6729  -9.6556  -9.6556
    -5.3980  -5.3980  -4.8480  -4.8480  -1.4189  -1.4182  -1.1479  -1.1472
    -0.2812  -0.2811  -0.2657  -0.2639   0.0783   0.0783   0.2312   0.2314

          k = 0.0000-0.4868 0.0000 ( 25634 PWs)   bands (ev):

   -24.4368 -24.4368  -9.7944  -9.7944  -9.7183  -9.7183  -9.5697  -9.5697
    -5.6296  -5.6296  -5.0281  -5.0281  -1.3178  -1.3178  -0.7084  -0.7084
    -0.4649  -0.4649  -0.0307  -0.0307   0.1206   0.1206   0.2253   0.2253

          k = 0.0000-0.4868 0.3622 ( 25690 PWs)   bands (ev):

   -24.4316 -24.4316  -9.8372  -9.8372  -9.7076  -9.7076  -9.6719  -9.6719
    -5.4668  -5.4668  -4.9755  -4.9755  -1.3235  -1.3235  -0.9338  -0.9338
    -0.3800  -0.3800  -0.1074  -0.1074   0.0200   0.0200   0.2296   0.2296

[...]
        22        H      tau(  22) = (   0.1606657   0.3520907   0.1901142  )

     number of k points=    27
                       cart. coord. in units 2pi/alat
        k(    1) = (   0.0000000   0.0000000   0.0000000), wk =   0.0312500
        k(    2) = (   0.0000000   0.0000000   0.3684092), wk =   0.0625000
        k(    3) = (   0.0000000   0.0000000  -0.7368184), wk =   0.0312500
        k(    4) = (   0.0000000   0.2437829   0.0000000), wk =   0.0625000
        k(    5) = (   0.0000000   0.2437829   0.3684092), wk =   0.1250000
        k(    6) = (   0.0000000   0.2437829  -0.7368184), wk =   0.0625000
        k(    7) = (   0.0000000  -0.4875658   0.0000000), wk =   0.0312500
        k(    8) = (   0.0000000  -0.4875658   0.3684092), wk =   0.0625000
        k(    9) = (   0.0000000  -0.4875658  -0.7368184), wk =   0.0312500
        k(   10) = (   0.2450007   0.0000000   0.0000000), wk =   0.0625000
        k(   11) = (   0.2450007   0.0000000   0.3684092), wk =   0.1250000
        k(   12) = (   0.2450007   0.0000000  -0.7368184), wk =   0.0625000
        k(   13) = (   0.2450007   0.2437829   0.0000000), wk =   0.1250000
        k(   14) = (   0.2450007   0.2437829   0.3684092), wk =   0.2500000
        k(   15) = (   0.2450007   0.2437829  -0.7368184), wk =   0.1250000
        k(   16) = (   0.2450007  -0.4875658   0.0000000), wk =   0.0625000
        k(   17) = (   0.2450007  -0.4875658   0.3684092), wk =   0.1250000
        k(   18) = (   0.2450007  -0.4875658  -0.7368184), wk =   0.0625000
        k(   19) = (  -0.4900013   0.0000000   0.0000000), wk =   0.0312500
        k(   20) = (  -0.4900013   0.0000000   0.3684092), wk =   0.0625000
        k(   21) = (  -0.4900013   0.0000000  -0.7368184), wk =   0.0312500
        k(   22) = (  -0.4900013   0.2437829   0.0000000), wk =   0.0625000
        k(   23) = (  -0.4900013   0.2437829   0.3684092), wk =   0.1250000
        k(   24) = (  -0.4900013   0.2437829  -0.7368184), wk =   0.0625000
        k(   25) = (  -0.4900013  -0.4875658   0.0000000), wk =   0.0312500
        k(   26) = (  -0.4900013  -0.4875658   0.3684092), wk =   0.0625000
        k(   27) = (  -0.4900013  -0.4875658  -0.7368184), wk =   0.0312500

     Dense  grid:   580795 G-vectors     FFT dimensions: ( 120, 120,  80)

     Smooth grid:   205333 G-vectors     FFT dimensions: (  90,  90,  60)

     Estimated max dynamical RAM per process >      94.88 MB

     Estimated total dynamical RAM >       2.22 GB

     Initial potential from superposition of free atoms

     starting charge      47.9682, renormalised to      48.0000
     Starting wfcs are   42 randomized atomic wfcs

     total cpu time spent up to now is    10406.4 secs

     Self-consistent Calculation

     iteration #  1     ecut=   100.00 Ry     beta= 0.70
     Davidson diagonalization with overlap
     ethr =  1.00E-06,  avg # of iterations = 11.1

     total cpu time spent up to now is    10457.7 secs

     total energy              =    -155.82874555 Ry
     estimated scf accuracy    <       2.28302538 Ry

     iteration #  2     ecut=   100.00 Ry     beta= 0.70
     Davidson diagonalization with overlap
     ethr =  4.76E-03,  avg # of iterations =  2.0

     total cpu time spent up to now is    10474.1 secs

     total energy              =    -156.39471244 Ry
     estimated scf accuracy    <       0.47400903 Ry

     iteration #  3     ecut=   100.00 Ry     beta= 0.70
     Davidson diagonalization with overlap
     ethr =  9.88E-04,  avg # of iterations =  2.0

     total cpu time spent up to now is    10490.1 secs

     total energy              =    -156.46938396 Ry
     estimated scf accuracy    <       0.00569990 Ry

     iteration #  4     ecut=   100.00 Ry     beta= 0.70
     Davidson diagonalization with overlap
     ethr =  1.19E-05,  avg # of iterations =  3.4

     total cpu time spent up to now is    10510.0 secs

     total energy              =    -156.47151438 Ry
     estimated scf accuracy    <       0.00229497 Ry

     iteration #  5     ecut=   100.00 Ry     beta= 0.70
     Davidson diagonalization with overlap
     ethr =  4.78E-06,  avg # of iterations =  3.2

     total cpu time spent up to now is    10526.6 secs

     total energy              =    -156.47216294 Ry
     estimated scf accuracy    <       0.00005372 Ry

     iteration #  6     ecut=   100.00 Ry     beta= 0.70
     Davidson diagonalization with overlap
     ethr =  1.12E-07,  avg # of iterations =  6.0

     total cpu time spent up to now is    10552.9 secs

     total energy              =    -156.47226155 Ry
     estimated scf accuracy    <       0.00001853 Ry

     iteration #  7     ecut=   100.00 Ry     beta= 0.70
     Davidson diagonalization with overlap
     ethr =  3.86E-08,  avg # of iterations =  2.4

     total cpu time spent up to now is    10569.3 secs

     total energy              =    -156.47226582 Ry
     estimated scf accuracy    <       0.00000009 Ry

     iteration #  8     ecut=   100.00 Ry     beta= 0.70
     Davidson diagonalization with overlap
     ethr =  1.94E-10,  avg # of iterations =  7.5

     total cpu time spent up to now is    10601.7 secs

     total energy              =    -156.47226629 Ry
     estimated scf accuracy    <       0.00000004 Ry

     iteration #  9     ecut=   100.00 Ry     beta= 0.70
     Davidson diagonalization with overlap
     ethr =  9.25E-11,  avg # of iterations =  2.1

     total cpu time spent up to now is    10616.3 secs

     total energy              =    -156.47226629 Ry
     estimated scf accuracy    <          7.9E-09 Ry

     iteration # 10     ecut=   100.00 Ry     beta= 0.70
     Davidson diagonalization with overlap
     ethr =  1.65E-11,  avg # of iterations =  3.6

     total cpu time spent up to now is    10634.3 secs

     total energy              =    -156.47226629 Ry
     estimated scf accuracy    <          7.8E-11 Ry

     iteration # 11     ecut=   100.00 Ry     beta= 0.70
     Davidson diagonalization with overlap
     ethr =  1.63E-13,  avg # of iterations =  9.9

     total cpu time spent up to now is    10677.0 secs

     total energy              =    -156.47226629 Ry
     estimated scf accuracy    <          1.1E-10 Ry

     iteration # 12     ecut=   100.00 Ry     beta= 0.70
     Davidson diagonalization with overlap
     ethr =  1.63E-13,  avg # of iterations =  2.1

     total cpu time spent up to now is    10694.5 secs

     total energy              =    -156.47226629 Ry
     estimated scf accuracy    <          8.0E-12 Ry

     iteration # 13     ecut=   100.00 Ry     beta= 0.70
     Davidson diagonalization with overlap
     ethr =  1.00E-13,  avg # of iterations =  1.0

     total cpu time spent up to now is    10707.1 secs

     total energy              =    -156.47226629 Ry
     estimated scf accuracy    <          2.1E-12 Ry

     iteration # 14     ecut=   100.00 Ry     beta= 0.70
     Davidson diagonalization with overlap
     ethr =  1.00E-13,  avg # of iterations =  1.0

     total cpu time spent up to now is    10719.7 secs

     End of self-consistent calculation

          k = 0.0000 0.0000 0.0000 ( 25605 PWs)   bands (ev):

   -24.3490 -24.3424  -9.8493  -9.7888  -9.6044  -9.5683  -9.5211  -9.4693
    -6.2954  -5.4245  -4.8456  -4.7501  -1.9995  -1.0651  -1.0565  -0.7047
    -0.5314  -0.4255  -0.3214  -0.2479   0.0203   0.3169   0.3293   0.3607

          k = 0.0000 0.0000 0.3684 ( 25632 PWs)   bands (ev):

   -24.3414 -24.3367  -9.7753  -9.7592  -9.7552  -9.7178  -9.5858  -9.5638
    -5.8023  -5.1481  -5.0183  -4.9555  -1.6002  -1.4477  -1.1186  -0.8458
    -0.7038  -0.6312  -0.2952  -0.0554   0.1174   0.1476   0.1825   0.3083

          k = 0.0000 0.0000-0.7368 ( 25712 PWs)   bands (ev):

   -24.3325 -24.3325  -9.9954  -9.9954  -9.6211  -9.6211  -9.5956  -9.5956
    -5.1820  -5.1820  -5.1089  -5.1089  -1.5016  -1.5015  -1.3631  -1.3631
    -0.3305  -0.3305  -0.3227  -0.3225   0.1019   0.1020   0.1930   0.1931

          k = 0.0000 0.2438 0.0000 ( 25604 PWs)   bands (ev):

   -24.3480 -24.3433  -9.8238  -9.7635  -9.6441  -9.5997  -9.5134  -9.4767
    -6.1240  -5.3897  -5.0516  -4.8427  -1.7144  -1.2543  -1.1248  -0.4589
    -0.4362  -0.4230  -0.2875  -0.1241   0.0130   0.0293   0.2449   0.2959

          k = 0.0000 0.2438 0.3684 ( 25670 PWs)   bands (ev):

   -24.3407 -24.3374  -9.8066  -9.7774  -9.7056  -9.6957  -9.5938  -9.5825
    -5.7064  -5.2200  -5.0536  -4.9827  -1.4674  -1.4535  -1.2707  -0.6806
    -0.6531  -0.4481  -0.4182  -0.0338   0.0592   0.1063   0.1803   0.2099

          k = 0.0000 0.2438-0.7368 ( 25654 PWs)   bands (ev):

   -24.3324 -24.3324 -10.0051 -10.0051  -9.6073  -9.6073  -9.5956  -9.5956
    -5.4179  -5.4179  -4.8634  -4.8634  -1.6382  -1.6382  -1.1884  -1.1884
    -0.2891  -0.2889  -0.2620  -0.2620   0.0303   0.0304   0.1278   0.1279

          k = 0.0000-0.4876 0.0000 ( 25642 PWs)   bands (ev):

   -24.3457 -24.3457  -9.7590  -9.7590  -9.6664  -9.6664  -9.4950  -9.4950
    -5.6983  -5.6983  -5.0460  -5.0460  -1.4231  -1.4231  -0.7248  -0.7248
    -0.4819  -0.4819  -0.0932  -0.0932  -0.0076  -0.0076   0.1502   0.1502

          k = 0.0000-0.4876 0.3684 ( 25678 PWs)   bands (ev):

   -24.3391 -24.3391  -9.8067  -9.8067  -9.6642  -9.6642  -9.6120  -9.6120
    -5.4662  -5.4662  -5.0338  -5.0338  -1.4591  -1.4591  -0.9930  -0.9930
    -0.4480  -0.4480  -0.1126  -0.1126  -0.0579  -0.0579   0.1716   0.1716

          k = 0.0000-0.4876-0.7368 ( 25660 PWs)   bands (ev):

   -24.3324 -24.3324 -10.0142 -10.0142  -9.5966  -9.5966  -9.5931  -9.5931
    -5.5271  -5.5271  -4.7442  -4.7442  -1.7312  -1.7312  -0.9935  -0.9935
    -0.3002  -0.3002  -0.1943  -0.1943  -0.1794  -0.1794   0.1858   0.1858

          k = 0.2450 0.0000 0.0000 ( 25630 PWs)   bands (ev):

   -24.3480 -24.3433  -9.8172  -9.7687  -9.6390  -9.6093  -9.5134  -9.4768
    -6.1344  -5.4732  -4.8806  -4.8728  -1.8077  -1.0101  -0.9656  -0.8304
    -0.3759  -0.3215  -0.3041  -0.2551  -0.0470  -0.0249   0.2542   0.2970

          k = 0.2450 0.0000 0.3684 ( 25690 PWs)   bands (ev):

   -24.3407 -24.3374  -9.8008  -9.7822  -9.7278  -9.6778  -9.6047  -9.5732
    -5.6814  -5.1498  -5.0651  -5.0405  -1.5764  -1.3833  -1.2833  -0.7090
    -0.6692  -0.4800  -0.3123  -0.1267  -0.0039   0.1367   0.2354   0.2673

          k = 0.2450 0.0000-0.7368 ( 25642 PWs)   bands (ev):

   -24.3324 -24.3324 -10.0077 -10.0077  -9.6124  -9.6124  -9.5912  -9.5912
    -5.2989  -5.2989  -4.9717  -4.9716  -1.8504  -1.8504  -1.0151  -1.0150
    -0.3295  -0.3295  -0.1659  -0.1658  -0.0175  -0.0174   0.1925   0.1925

          k = 0.2450 0.2438 0.0000 ( 25672 PWs)   bands (ev):

   -24.3473 -24.3440  -9.8399  -9.7472  -9.6773  -9.5765  -9.5079  -9.4820
    -6.0164  -5.4818  -5.0479  -4.8752  -1.5913  -1.2332  -0.9923  -0.5633
    -0.4809  -0.4260  -0.2218  -0.1027  -0.1006   0.0226   0.1383   0.2494

          k = 0.2450 0.2438 0.3684 ( 25668 PWs)   bands (ev):

   -24.3402 -24.3379  -9.8008  -9.7737  -9.7525  -9.6633  -9.6111  -9.5683
    -5.6032  -5.1965  -5.1237  -5.0351  -1.5536  -1.3828  -1.2777  -0.7531
    -0.5573  -0.4270  -0.3030  -0.0782  -0.0448   0.0825   0.1977   0.2644

          k = 0.2450 0.2438-0.7368 ( 25664 PWs)   bands (ev):

   -24.3324 -24.3324 -10.0133  -9.9967  -9.6248  -9.6022  -9.5938  -9.5927
    -5.4512  -5.2815  -4.9853  -4.8095  -1.8721  -1.7402  -1.1599  -0.9853
    -0.3835  -0.3484  -0.1259  -0.0485  -0.0418   0.0354   0.1448   0.1913

          k = 0.2450-0.4876 0.0000 ( 25658 PWs)   bands (ev):

   -24.3457 -24.3457  -9.8166  -9.8166  -9.6072  -9.6072  -9.4948  -9.4948
    -5.7194  -5.7194  -5.0192  -5.0192  -1.3516  -1.3516  -0.7600  -0.7600
    -0.5165  -0.5165  -0.1383  -0.1383   0.0291   0.0291   0.1299   0.1299

          k = 0.2450-0.4876 0.3684 ( 25642 PWs)   bands (ev):

   -24.3391 -24.3391  -9.7955  -9.7955  -9.7095  -9.7095  -9.5814  -9.5814
    -5.4083  -5.4083  -5.0816  -5.0816  -1.4975  -1.4975  -1.0037  -1.0037
    -0.4393  -0.4393  -0.1428  -0.1428   0.0348   0.0348   0.1678   0.1678

          k = 0.2450-0.4876-0.7368 ( 25700 PWs)   bands (ev):

   -24.3324 -24.3324 -10.0028 -10.0028  -9.6112  -9.6112  -9.5982  -9.5982
    -5.4419  -5.4419  -4.8149  -4.8149  -1.7700  -1.7700  -1.1367  -1.1367
    -0.2954  -0.2954  -0.1537  -0.1537   0.0308   0.0308   0.1758   0.1758

          k =-0.4900 0.0000 0.0000 ( 25646 PWs)   bands (ev):

   -24.3457 -24.3457  -9.7470  -9.7470  -9.6815  -9.6815  -9.4950  -9.4950
    -5.7598  -5.7598  -4.9405  -4.9405  -1.4120  -1.4120  -0.6195  -0.6195
    -0.3269  -0.3269  -0.3194  -0.3194  -0.1927  -0.1927   0.1401   0.1401

          k =-0.4900 0.0000 0.3684 ( 25646 PWs)   bands (ev):

   -24.3391 -24.3391  -9.8073  -9.8073  -9.6767  -9.6767  -9.6037  -9.6037
    -5.3901  -5.3901  -5.0847  -5.0847  -1.5106  -1.5106  -1.0087  -1.0087
    -0.4187  -0.4187  -0.2770  -0.2770   0.0605   0.0605   0.2218   0.2218

          k =-0.4900 0.0000-0.7368 ( 25668 PWs)   bands (ev):

   -24.3324 -24.3324 -10.0194 -10.0194  -9.6069  -9.6069  -9.5843  -9.5843
    -5.3560  -5.3560  -4.8928  -4.8928  -2.0271  -2.0271  -0.7718  -0.7718
    -0.3191  -0.3191  -0.2826  -0.2826   0.1179   0.1179   0.1382   0.1382

          k =-0.4900 0.2438 0.0000 ( 25632 PWs)   bands (ev):

   -24.3457 -24.3457  -9.8148  -9.8148  -9.6105  -9.6105  -9.4948  -9.4948
    -5.7500  -5.7500  -4.9667  -4.9667  -1.3504  -1.3504  -0.6812  -0.6812
    -0.4688  -0.4688  -0.3093  -0.3093  -0.0300  -0.0300   0.1582   0.1582

          k =-0.4900 0.2438 0.3684 ( 25672 PWs)   bands (ev):

   -24.3391 -24.3391  -9.7957  -9.7957  -9.7133  -9.7133  -9.5799  -9.5799
    -5.3615  -5.3615  -5.1156  -5.1156  -1.5192  -1.5192  -1.0315  -1.0315
    -0.3681  -0.3681  -0.2482  -0.2482   0.0845   0.0845   0.1835   0.1835

          k =-0.4900 0.2438-0.7368 ( 25696 PWs)   bands (ev):

   -24.3324 -24.3324 -10.0055 -10.0055  -9.6151  -9.6151  -9.5950  -9.5950
    -5.3429  -5.3429  -4.9026  -4.9026  -1.9419  -1.9419  -0.9967  -0.9967
    -0.2811  -0.2811  -0.2132  -0.2132   0.0853   0.0853   0.2348   0.2348

          k =-0.4900-0.4876 0.0000 ( 25688 PWs)   bands (ev):

   -24.3457 -24.3457  -9.8518  -9.8518  -9.5703  -9.5703  -9.4946  -9.4946
    -5.7397  -5.7397  -4.9929  -4.9929  -1.2672  -1.2672  -0.8108  -0.8108
    -0.5470  -0.5470  -0.1695  -0.1695   0.0617   0.0617   0.0975   0.0975

          k =-0.4900-0.4876 0.3684 ( 25692 PWs)   bands (ev):

   -24.3390 -24.3390  -9.7637  -9.7637  -9.7615  -9.7615  -9.5648  -9.5648
    -5.3238  -5.3238  -5.1556  -5.1556  -1.5175  -1.5175  -1.0794  -1.0794
    -0.3343  -0.3343  -0.0532  -0.0532  -0.0504  -0.0504   0.1693   0.1693

          k =-0.4900-0.4876-0.7368 ( 25712 PWs)   bands (ev):

   -24.3324 -24.3324  -9.9904  -9.9904  -9.6288  -9.6288  -9.6013  -9.6013
    -5.3296  -5.3296  -4.9124  -4.9124  -1.8032  -1.8032  -1.2669  -1.2669
    -0.2142  -0.2142  -0.0212  -0.0212  -0.0204  -0.0204   0.2408   0.2408

     highest occupied level (ev):     0.3607

!    total energy              =    -156.47226629 Ry
     estimated scf accuracy    <          3.6E-14 Ry

     The total energy is the sum of the following terms:
     one-electron contribution =     -28.76492223 Ry
     hartree contribution      =      28.01635127 Ry
     xc contribution           =     -49.06854920 Ry
     ewald contribution        =    -106.65514613 Ry

     convergence has been achieved in  14 iterations

     Forces acting on atoms (cartesian axes, Ry/au):

     atom    1 type  2   force =     0.00000000    0.00000000   -0.00000419
     atom    2 type  2   force =     0.00000000    0.00000000    0.00000419
     atom    3 type  1   force =    -0.00000212    0.00000361   -0.00000419
     atom    4 type  1   force =     0.00000212   -0.00000361   -0.00000419
     atom    5 type  1   force =    -0.00000212   -0.00000361    0.00000419
     atom    6 type  1   force =     0.00000212    0.00000361    0.00000419
     atom    7 type  3   force =     0.00000428   -0.00000050    0.00000962
     atom    8 type  3   force =    -0.00000428    0.00000050    0.00000962
     atom    9 type  3   force =     0.00000428    0.00000050   -0.00000962
     atom   10 type  3   force =    -0.00000428   -0.00000050   -0.00000962
     atom   11 type  3   force =    -0.00000236   -0.00000349    0.00000095
     atom   12 type  3   force =     0.00000236    0.00000349    0.00000095
     atom   13 type  3   force =    -0.00000236    0.00000349   -0.00000095
     atom   14 type  3   force =     0.00000236   -0.00000349   -0.00000095
     atom   15 type  3   force =     0.00000330   -0.00000155   -0.00000035
     atom   16 type  3   force =    -0.00000330    0.00000155   -0.00000035
     atom   17 type  3   force =     0.00000330    0.00000155    0.00000035
     atom   18 type  3   force =    -0.00000330   -0.00000155    0.00000035
     atom   19 type  3   force =     0.00000353   -0.00000416   -0.00000480
     atom   20 type  3   force =    -0.00000353    0.00000416   -0.00000480
     atom   21 type  3   force =     0.00000353    0.00000416    0.00000480
     atom   22 type  3   force =    -0.00000353   -0.00000416    0.00000480

     Total force =     0.000031     Total SCF correction =     0.000000


     Computing stress (Cartesian axis) and pressure

          total   stress  (Ry/bohr**3)                   (kbar)     P=       -6.84
  -0.00004648   0.00000000   0.00000000           -6.84        0.00        0.00
   0.00000000  -0.00004652   0.00000000            0.00       -6.84        0.00
   0.00000000   0.00000000  -0.00004657            0.00        0.00       -6.85


     Writing all to output data dir ./pwscf.save/ :
     XML data file, charge density, pseudopotentials, collected wavefunctions

     init_run     :     20.30s CPU     22.03s WALL (       2 calls)
     electrons    :   8730.02s CPU   8796.68s WALL (      60 calls)
     update_pot   :     14.54s CPU     15.91s WALL (      58 calls)
     forces       :    206.81s CPU    208.76s WALL (      60 calls)
     stress       :   1686.11s CPU   1690.30s WALL (      60 calls)

     Called by init_run:
     wfcinit      :     16.27s CPU     16.38s WALL (       2 calls)
     potinit      :      0.76s CPU      1.25s WALL (       2 calls)
     hinit0       :      1.42s CPU      2.47s WALL (       2 calls)

     Called by electrons:
     c_bands      :   7637.85s CPU   7687.45s WALL (     467 calls)
     sum_band     :    941.41s CPU    950.86s WALL (     467 calls)
     v_of_rho     :     64.14s CPU     67.07s WALL (     484 calls)
     newd         :     89.21s CPU     90.79s WALL (     484 calls)
     mix_rho      :      7.16s CPU      7.81s WALL (     467 calls)

     Called by c_bands:
     init_us_2    :    184.05s CPU    186.16s WALL (   28512 calls)
     cegterg      :   6804.19s CPU   6850.99s WALL (   12609 calls)

     Called by *egterg:
     cdiaghg      :     92.52s CPU     93.23s WALL (   51924 calls)
     h_psi        :   4752.69s CPU   4789.80s WALL (   54705 calls)
     s_psi        :    887.85s CPU    891.75s WALL (   54705 calls)
     g_psi        :     15.96s CPU     16.03s WALL (   42042 calls)

     Called by h_psi:
     h_psi:calbec :    809.32s CPU    813.57s WALL (   54705 calls)
     vloc_psi     :   3037.93s CPU   3067.29s WALL (   54705 calls)
     add_vuspsi   :    891.15s CPU    894.93s WALL (   54705 calls)

     General routines
     calbec       :   1494.00s CPU   1500.48s WALL (   75414 calls)
     fft          :     47.97s CPU     54.05s WALL (    7773 calls)
     ffts         :      2.93s CPU      3.60s WALL (     951 calls)
     fftw         :   3133.81s CPU   3162.66s WALL ( 2211474 calls)
     interpolate  :      5.16s CPU      6.05s WALL (     484 calls)

     Parallel routines

     PWSCF        :      2h57m CPU      2h59m WALL


   This run was terminated on:  17:41:40   6Aug2024            

=------------------------------------------------------------------------------=
   JOB DONE.
=------------------------------------------------------------------------------=
