
     Program PWSCF v.7.3.1 starts on  6Aug2024 at 14:42:27 

     This program is part of the open-source Quantum ESPRESSO suite
     for quantum simulation of materials; please cite
         "P. Giannozzi et al., J. Phys.:Condens. Matter 21 395502 (2009);
         "P. Giannozzi et al., J. Phys.:Condens. Matter 29 465901 (2017);
         "P. Giannozzi et al., J. Chem. Phys. 152 154105 (2020);
          URL http://www.quantum-espresso.org", 
     in publications or presentations arising from this work. More details at
     http://www.quantum-espresso.org/quote

     Parallel version (MPI), running on    24 processors

     MPI processes distributed on     1 nodes
     93385 MiB available memory on the printing compute node when the environment starts

     Waiting for input...
     Reading input from standard input

     Current dimensions of program PWSCF are:
     Max number of different atomic species (ntypx) = 10
     Max number of k-points (npk) =  40000
     Max angular momentum in pseudopotentials (lmaxx) =  4

     R & G space division:  proc/nbgrp/npool/nimage =      24
     Subspace diagonalization in iterative solution of the eigenvalue problem:
     a serial algorithm will be used


     Parallelization info
     --------------------
     sticks:   dense  smooth     PW     G-vecs:    dense   smooth      PW
     Min         463     231     63                25103     8877    1277
     Max         464     232     64                25105     8880    1280
     Sum       11113    5563   1523               602481   213091   30689

     Using Slab Decomposition


     Title: 
     volume variation                                                           


     bravais-lattice index     =            8
     lattice parameter (alat)  =      13.0463  a.u.
     unit-cell volume          =    1576.8022 (a.u.)^3
     number of atoms/cell      =           22
     number of atomic types    =            3
     number of electrons       =        48.00
     number of Kohn-Sham states=           24
     kinetic-energy cutoff     =     100.0000  Ry
     charge density cutoff     =     800.0000  Ry
     scf convergence threshold =      1.0E-10
     mixing beta               =       0.7000
     number of iterations used =            8  plain     mixing
     energy convergence thresh.=      1.0E-05
     force convergence thresh. =      1.0E-05
     press convergence thresh. =      5.0E-01
     Exchange-correlation= PBESOL
                           (   1   4  10   8   0   0   0)
     nstep                     =          300


     celldm(1)=  13.046260  celldm(2)=   1.025571  celldm(3)=   0.692394
     celldm(4)=   0.000000  celldm(5)=   0.000000  celldm(6)=   0.000000

     crystal axes: (cart. coord. in units of alat)
               a(1) = (   1.000000   0.000000   0.000000 )  
               a(2) = (   0.000000   1.025571   0.000000 )  
               a(3) = (   0.000000   0.000000   0.692394 )  

     reciprocal axes: (cart. coord. in units 2 pi/alat)
               b(1) = (  1.000000  0.000000  0.000000 )  
               b(2) = (  0.000000  0.975067  0.000000 )  
               b(3) = (  0.000000  0.000000  1.444264 )  


     PseudoPot. # 1 for B  read from file:
     /home/mehlhorn/pseudos/b_pbesol_v1.4.uspp.F.UPF
     MD5 check sum: 369b69bef2c3aeed4453bd8b804fd6a8
     Pseudo is Ultrasoft + core correction, Zval =  3.0
     Generated by new atomic code, or converted to UPF format
     Using radial grid of  781 points,  4 beta functions with: 
                l(1) =   0
                l(2) =   0
                l(3) =   1
                l(4) =   1
     Q(r) pseudized with  8 coefficients,  rinner =    1.100   1.100   1.100


     PseudoPot. # 2 for Ba read from file:
     /home/mehlhorn/pseudos/Ba.nc.z_10.oncvpsp4.dojo.v4-sp.upf
     MD5 check sum: c10ed334bb677c0554edec7181ce9143
     Pseudo is Norm-conserving + core correction, Zval = 10.0
     Generated using ONCVPSP code by D. R. Hamann
     Using radial grid of 1938 points,  8 beta functions with: 
                l(1) =   0
                l(2) =   0
                l(3) =   1
                l(4) =   1
                l(5) =   2
                l(6) =   2
                l(7) =   3
                l(8) =   3

     PseudoPot. # 3 for H  read from file:
     /home/mehlhorn/pseudos/H_ONCV_PBEsol-1.0.upf
     MD5 check sum: 398ef8f67c0a7342c05c87c5e19ea467
     Pseudo is Norm-conserving, Zval =  1.0
     Generated using ONCVPSP code by D. R. Hamann
     Using radial grid of 1180 points,  2 beta functions with: 
                l(1) =   0
                l(2) =   0

     atomic species   valence    mass     pseudopotential
     B                 3.00    10.81100     B ( 1.00)
     Ba               10.00   137.32700     Ba( 1.00)
     H                 1.00     1.00794     H ( 1.00)

      4 Sym. Ops. (no inversion) found ( 2 have fractional translation)



   Cartesian axes

     site n.     atom                  positions (alat units)
         1        Ba     tau(   1) = (   0.5000000   0.5127855   0.3462657  )
         2        Ba     tau(   2) = (   0.0000000   0.0000000   0.6923255  )
         3        B      tau(   3) = (   0.6102570   0.2453190   0.0000455  )
         4        B      tau(   4) = (   0.3897430   0.7802519   0.0000455  )
         5        B      tau(   5) = (   0.1102570   0.2674665   0.3461516  )
         6        B      tau(   6) = (   0.8897430   0.7581045   0.3461516  )
         7        H      tau(   7) = (   0.4340973   0.2996264   0.0001599  )
         8        H      tau(   8) = (   0.5659027   0.7259445   0.0001599  )
         9        H      tau(   9) = (   0.9340973   0.2131590   0.3460372  )
        10        H      tau(  10) = (   0.0659027   0.8124119   0.3460372  )
        11        H      tau(  11) = (   0.7220603   0.3933629  -0.0000058  )
        12        H      tau(  12) = (   0.2779397   0.6322081  -0.0000058  )
        13        H      tau(  13) = (   0.2220603   0.1194226   0.3462029  )
        14        H      tau(  14) = (   0.7779397   0.9061483   0.3462029  )
        15        H      tau(  15) = (   0.6392499   0.1457279   0.5404125  )
        16        H      tau(  16) = (   0.3607501   0.8798430   0.5404125  )
        17        H      tau(  17) = (   0.1392499   0.3670576   0.4981787  )
        18        H      tau(  18) = (   0.8607501   0.6585133   0.4981787  )
        19        H      tau(  19) = (   0.3605328   0.8798946   0.1519977  )
        20        H      tau(  20) = (   0.6394672   0.1456763   0.1519977  )
        21        H      tau(  21) = (   0.8605328   0.6584617   0.1941994  )
        22        H      tau(  22) = (   0.1394672   0.3671092   0.1941994  )

     number of k points=    27
                       cart. coord. in units 2pi/alat
        k(    1) = (   0.0000000   0.0000000   0.0000000), wk =   0.0312500
        k(    2) = (   0.0000000   0.0000000   0.3610660), wk =   0.0625000
        k(    3) = (   0.0000000   0.0000000  -0.7221320), wk =   0.0312500
        k(    4) = (   0.0000000   0.2437667   0.0000000), wk =   0.0625000
        k(    5) = (   0.0000000   0.2437667   0.3610660), wk =   0.1250000
        k(    6) = (   0.0000000   0.2437667  -0.7221320), wk =   0.0625000
        k(    7) = (   0.0000000  -0.4875333   0.0000000), wk =   0.0312500
        k(    8) = (   0.0000000  -0.4875333   0.3610660), wk =   0.0625000
        k(    9) = (   0.0000000  -0.4875333  -0.7221320), wk =   0.0312500
        k(   10) = (   0.2500000   0.0000000   0.0000000), wk =   0.0625000
        k(   11) = (   0.2500000   0.0000000   0.3610660), wk =   0.1250000
        k(   12) = (   0.2500000   0.0000000  -0.7221320), wk =   0.0625000
        k(   13) = (   0.2500000   0.2437667   0.0000000), wk =   0.1250000
        k(   14) = (   0.2500000   0.2437667   0.3610660), wk =   0.2500000
        k(   15) = (   0.2500000   0.2437667  -0.7221320), wk =   0.1250000
        k(   16) = (   0.2500000  -0.4875333   0.0000000), wk =   0.0625000
        k(   17) = (   0.2500000  -0.4875333   0.3610660), wk =   0.1250000
        k(   18) = (   0.2500000  -0.4875333  -0.7221320), wk =   0.0625000
        k(   19) = (  -0.5000000   0.0000000   0.0000000), wk =   0.0312500
        k(   20) = (  -0.5000000   0.0000000   0.3610660), wk =   0.0625000
        k(   21) = (  -0.5000000   0.0000000  -0.7221320), wk =   0.0312500
        k(   22) = (  -0.5000000   0.2437667   0.0000000), wk =   0.0625000
        k(   23) = (  -0.5000000   0.2437667   0.3610660), wk =   0.1250000
        k(   24) = (  -0.5000000   0.2437667  -0.7221320), wk =   0.0625000
        k(   25) = (  -0.5000000  -0.4875333   0.0000000), wk =   0.0312500
        k(   26) = (  -0.5000000  -0.4875333   0.3610660), wk =   0.0625000
        k(   27) = (  -0.5000000  -0.4875333  -0.7221320), wk =   0.0312500

     Dense  grid:   602481 G-vectors     FFT dimensions: ( 120, 128,  90)

     Smooth grid:   213091 G-vectors     FFT dimensions: (  90,  90,  60)

     Estimated max dynamical RAM per process >      96.75 MB

     Estimated total dynamical RAM >       2.27 GB

     Initial potential from superposition of free atoms

     starting charge      47.9682, renormalised to      48.0000
     Starting wfcs are   42 randomized atomic wfcs

     total cpu time spent up to now is       12.9 secs

     Self-consistent Calculation

     iteration #  1     ecut=   100.00 Ry     beta= 0.70
     Davidson diagonalization with overlap
     ethr =  1.00E-02,  avg # of iterations =  2.0

     total cpu time spent up to now is       30.2 secs

     total energy              =    -155.95654032 Ry
     estimated scf accuracy    <       1.87205439 Ry

     iteration #  2     ecut=   100.00 Ry     beta= 0.70
     Davidson diagonalization with overlap
     ethr =  3.90E-03,  avg # of iterations =  2.0

     total cpu time spent up to now is       47.3 secs

     total energy              =    -156.38291488 Ry
     estimated scf accuracy    <       0.35918872 Ry

     iteration #  3     ecut=   100.00 Ry     beta= 0.70
     Davidson diagonalization with overlap
     ethr =  7.48E-04,  avg # of iterations =  2.0

     total cpu time spent up to now is       64.4 secs

     total energy              =    -156.44334313 Ry
     estimated scf accuracy    <       0.00455260 Ry

     iteration #  4     ecut=   100.00 Ry     beta= 0.70
     Davidson diagonalization with overlap
     ethr =  9.48E-06,  avg # of iterations =  5.1

     total cpu time spent up to now is       89.0 secs

     total energy              =    -156.44603467 Ry
     estimated scf accuracy    <       0.00186685 Ry

     iteration #  5     ecut=   100.00 Ry     beta= 0.70
     Davidson diagonalization with overlap
     ethr =  3.89E-06,  avg # of iterations =  3.0

     total cpu time spent up to now is      106.6 secs

     total energy              =    -156.44666778 Ry
     estimated scf accuracy    <       0.00019441 Ry

     iteration #  6     ecut=   100.00 Ry     beta= 0.70
     Davidson diagonalization with overlap
     ethr =  4.05E-07,  avg # of iterations =  4.1

     total cpu time spent up to now is      126.1 secs

     total energy              =    -156.44673457 Ry
     estimated scf accuracy    <       0.00000168 Ry

     iteration #  7     ecut=   100.00 Ry     beta= 0.70
     Davidson diagonalization with overlap
     ethr =  3.50E-09,  avg # of iterations =  9.1

     total cpu time spent up to now is      166.2 secs

     total energy              =    -156.44674747 Ry
     estimated scf accuracy    <       0.00000140 Ry

     iteration #  8     ecut=   100.00 Ry     beta= 0.70
     Davidson diagonalization with overlap
     ethr =  2.91E-09,  avg # of iterations =  2.0

     total cpu time spent up to now is      183.3 secs

     total energy              =    -156.44674772 Ry
     estimated scf accuracy    <       0.00000002 Ry

     iteration #  9     ecut=   100.00 Ry     beta= 0.70
     Davidson diagonalization with overlap
     ethr =  4.90E-11,  avg # of iterations =  6.0

     total cpu time spent up to now is      208.9 secs

     total energy              =    -156.44674776 Ry
     estimated scf accuracy    <          3.1E-09 Ry

     iteration # 10     ecut=   100.00 Ry     beta= 0.70
     Davidson diagonalization with overlap
     ethr =  6.41E-12,  avg # of iterations =  3.4

     total cpu time spent up to now is      228.6 secs

     total energy              =    -156.44674776 Ry
     estimated scf accuracy    <          2.3E-10 Ry

     iteration # 11     ecut=   100.00 Ry     beta= 0.70
     Davidson diagonalization with overlap
     ethr =  4.83E-13,  avg # of iterations =  5.3

     total cpu time spent up to now is      253.2 secs

     End of self-consistent calculation

          k = 0.0000 0.0000 0.0000 ( 26643 PWs)   bands (ev):

   -24.7556 -24.7504 -10.1339 -10.0791  -9.9508  -9.9272  -9.8915  -9.8496
    -6.2454  -5.3666  -4.8991  -4.7253  -2.0166  -1.1885  -1.1336  -0.7585
    -0.4453  -0.4365  -0.4265  -0.2633  -0.1284   0.2433   0.2780   0.3162

          k = 0.0000 0.0000 0.3611 ( 26621 PWs)   bands (ev):

   -24.7508 -24.7471 -10.0701 -10.0612 -10.0410 -10.0342  -9.9400  -9.9274
    -5.8504  -5.1888  -5.0063  -4.8876  -1.7030  -1.4592  -1.0007  -0.9286
    -0.8235  -0.7294  -0.3947  -0.1370   0.0799   0.0845   0.1457   0.2935

          k = 0.0000 0.0000-0.7221 ( 26664 PWs)   bands (ev):

   -24.7448 -24.7448 -10.2130 -10.2129  -9.9728  -9.9727  -9.9515  -9.9515
    -5.2383  -5.2377  -5.0852  -5.0847  -1.4587  -1.4584  -1.4379  -1.4364
    -0.4529  -0.4518  -0.4158  -0.4144   0.0963   0.0965   0.1283   0.1289

          k = 0.0000 0.2438 0.0000 ( 26601 PWs)   bands (ev):

   -24.7548 -24.7511 -10.1134 -10.0594  -9.9822  -9.9494  -9.8852  -9.8556
    -6.0832  -5.3017  -5.1304  -4.8251  -1.7055  -1.3445  -1.2230  -0.5378
    -0.5193  -0.4834  -0.2315  -0.1353  -0.0489  -0.0380   0.1680   0.2508

          k = 0.0000 0.2438 0.3611 ( 26601 PWs)   bands (ev):

   -24.7502 -24.7476 -10.0942 -10.0629 -10.0191 -10.0169  -9.9436  -9.9408
    -5.7514  -5.2464  -5.0545  -4.9292  -1.5260  -1.4831  -1.2502  -0.7561
    -0.7113  -0.5160  -0.5134  -0.0938   0.0080   0.0264   0.1326   0.1908

          k = 0.0000 0.2438-0.7221 ( 26628 PWs)   bands (ev):

   -24.7448 -24.7448 -10.2227 -10.2226  -9.9614  -9.9614  -9.9509  -9.9509
    -5.4034  -5.4033  -4.9159  -4.9159  -1.5444  -1.5438  -1.3046  -1.3040
    -0.3906  -0.3888  -0.3773  -0.3773  -0.0418  -0.0417   0.1221   0.1224

          k = 0.0000-0.4875 0.0000 ( 26678 PWs)   bands (ev):

   -24.7530 -24.7530 -10.0590 -10.0590  -9.9997  -9.9997  -9.8703  -9.8703
    -5.6650  -5.6650  -5.0509  -5.0509  -1.4504  -1.4504  -0.8041  -0.8041
    -0.5914  -0.5914  -0.1194  -0.1194  -0.0227  -0.0227   0.1176   0.1176

          k = 0.0000-0.4875 0.3611 ( 26632 PWs)   bands (ev):

   -24.7489 -24.7489 -10.0908 -10.0908  -9.9901  -9.9901  -9.9596  -9.9596
    -5.5006  -5.5006  -5.0134  -5.0134  -1.4630  -1.4630  -1.0537  -1.0537
    -0.4995  -0.4995  -0.2341  -0.2341  -0.0735  -0.0735   0.1175   0.1175

          k = 0.0000-0.4875-0.7221 ( 26632 PWs)   bands (ev):

   -24.7448 -24.7448 -10.2316 -10.2316  -9.9545  -9.9545  -9.9466  -9.9466
    -5.4941  -5.4941  -4.8214  -4.8214  -1.6201  -1.6201  -1.1135  -1.1135
    -0.4293  -0.4293  -0.3114  -0.3114  -0.2112  -0.2112   0.1568   0.1568

          k = 0.2500 0.0000 0.0000 ( 26624 PWs)   bands (ev):

   -24.7548 -24.7511 -10.1083 -10.0653  -9.9778  -9.9579  -9.8852  -9.8556
    -6.0898  -5.4284  -4.9165  -4.8457  -1.8444  -1.0854  -1.0440  -0.8845
    -0.4355  -0.3706  -0.3137  -0.2452  -0.1594  -0.1364   0.2210   0.2676

          k = 0.2500 0.0000 0.3611 ( 26634 PWs)   bands (ev):

   -24.7502 -24.7476 -10.0865 -10.0716 -10.0400  -9.9993  -9.9549  -9.9317
    -5.7230  -5.2016  -5.0237  -4.9936  -1.6714  -1.4258  -1.2785  -0.8090
    -0.7509  -0.5463  -0.3116  -0.1847  -0.0804   0.0561   0.2334   0.2457

          k = 0.2500 0.0000-0.7221 ( 26622 PWs)   bands (ev):

   -24.7448 -24.7448 -10.2253 -10.2252  -9.9653  -9.9652  -9.9484  -9.9484
    -5.2355  -5.2351  -5.0658  -5.0655  -1.8745  -1.8740  -1.0680  -1.0675
    -0.4513  -0.4510  -0.1975  -0.1959  -0.0621  -0.0619   0.1652   0.1655

          k = 0.2500 0.2438 0.0000 ( 26640 PWs)   bands (ev):

   -24.7543 -24.7517 -10.1257 -10.0486 -10.0096  -9.9311  -9.8807  -9.8598
    -5.9628  -5.3962  -5.1027  -4.8961  -1.5882  -1.2940  -1.0569  -0.6291
    -0.5631  -0.5233  -0.2462  -0.1266  -0.0900  -0.0418   0.0560   0.1817

          k = 0.2500 0.2438 0.3611 ( 26642 PWs)   bands (ev):

   -24.7498 -24.7480 -10.0861 -10.0643 -10.0607  -9.9883  -9.9583  -9.9289
    -5.6389  -5.2086  -5.1254  -5.0013  -1.6278  -1.3848  -1.3155  -0.8032
    -0.6227  -0.4778  -0.3688  -0.1787  -0.0819   0.0251   0.1540   0.2288

          k = 0.2500 0.2438-0.7221 ( 26590 PWs)   bands (ev):

   -24.7448 -24.7448 -10.2304 -10.2149  -9.9768  -9.9555  -9.9515  -9.9494
    -5.3969  -5.2800  -5.0176  -4.8993  -1.8504  -1.7926  -1.1159  -1.0632
    -0.4890  -0.4842  -0.2195  -0.1837  -0.0192  -0.0096   0.1120   0.1596

          k = 0.2500-0.4875 0.0000 ( 26648 PWs)   bands (ev):

   -24.7530 -24.7530 -10.1078 -10.1078  -9.9527  -9.9527  -9.8701  -9.8701
    -5.6379  -5.6379  -5.0767  -5.0767  -1.3474  -1.3474  -0.8186  -0.8186
    -0.6194  -0.6194  -0.1803  -0.1803   0.0042   0.0042   0.0536   0.0536

          k = 0.2500-0.4875 0.3611 ( 26630 PWs)   bands (ev):

   -24.7489 -24.7489 -10.0849 -10.0849 -10.0230 -10.0230  -9.9369  -9.9369
    -5.4254  -5.4254  -5.0774  -5.0774  -1.5335  -1.5335  -1.0189  -1.0189
    -0.4922  -0.4922  -0.2015  -0.2015  -0.0771  -0.0771   0.1308   0.1308

          k = 0.2500-0.4875-0.7221 ( 26572 PWs)   bands (ev):

   -24.7448 -24.7448 -10.2207 -10.2207  -9.9662  -9.9662  -9.9527  -9.9527
    -5.4148  -5.4148  -4.8781  -4.8781  -1.7571  -1.7571  -1.1558  -1.1558
    -0.3914  -0.3914  -0.2771  -0.2771  -0.0355  -0.0355   0.1466   0.1466

          k =-0.5000 0.0000 0.0000 ( 26634 PWs)   bands (ev):

   -24.7529 -24.7529 -10.0482 -10.0482 -10.0154 -10.0154  -9.8703  -9.8703
    -5.7231  -5.7231  -4.9363  -4.9363  -1.4601  -1.4601  -0.7220  -0.7220
    -0.3935  -0.3935  -0.3510  -0.3510  -0.2583  -0.2583   0.1336   0.1336

          k =-0.5000 0.0000 0.3611 ( 26658 PWs)   bands (ev):

   -24.7489 -24.7489 -10.0917 -10.0917 -10.0035 -10.0035  -9.9517  -9.9517
    -5.4205  -5.4205  -5.0549  -5.0549  -1.5840  -1.5840  -1.0664  -1.0664
    -0.4975  -0.4975  -0.3229  -0.3229   0.0194   0.0194   0.2158   0.2158

          k =-0.5000 0.0000-0.7221 ( 26560 PWs)   bands (ev):

   -24.7448 -24.7448 -10.2367 -10.2367  -9.9604  -9.9604  -9.9435  -9.9435
    -5.2369  -5.2369  -5.0407  -5.0407  -2.0657  -2.0657  -0.8389  -0.8389
    -0.4666  -0.4666  -0.2959  -0.2959   0.0923   0.0923   0.1459   0.1459

          k =-0.5000 0.2438 0.0000 ( 26626 PWs)   bands (ev):

   -24.7529 -24.7529 -10.1070 -10.1070  -9.9559  -9.9559  -9.8701  -9.8701
    -5.6729  -5.6729  -5.0137  -5.0137  -1.3588  -1.3588  -0.7293  -0.7293
    -0.5595  -0.5595  -0.3828  -0.3828  -0.0747  -0.0747   0.1085   0.1085

          k =-0.5000 0.2438 0.3611 ( 26632 PWs)   bands (ev):

   -24.7489 -24.7489 -10.0855 -10.0855 -10.0266 -10.0266  -9.9359  -9.9359
    -5.3738  -5.3738  -5.1096  -5.1096  -1.5844  -1.5844  -1.0508  -1.0508
    -0.4615  -0.4615  -0.2760  -0.2760   0.0115   0.0115   0.1529   0.1529

          k =-0.5000 0.2438-0.7221 ( 26620 PWs)   bands (ev):

   -24.7448 -24.7448 -10.2235 -10.2235  -9.9681  -9.9681  -9.9520  -9.9520
    -5.2792  -5.2792  -4.9945  -4.9945  -1.9834  -1.9834  -1.0129  -1.0129
    -0.4235  -0.4235  -0.2431  -0.2431   0.0604   0.0604   0.1843   0.1843

          k =-0.5000-0.4875 0.0000 ( 26640 PWs)   bands (ev):

   -24.7529 -24.7529 -10.1367 -10.1367  -9.9255  -9.9255  -9.8699  -9.8699
    -5.6094  -5.6094  -5.1034  -5.1034  -1.2076  -1.2076  -0.8776  -0.8776
    -0.6451  -0.6451  -0.1929  -0.1929  -0.0515  -0.0515   0.0289   0.0289

          k =-0.5000-0.4875 0.3611 ( 26644 PWs)   bands (ev):

   -24.7489 -24.7489 -10.0752 -10.0752 -10.0481 -10.0481  -9.9258  -9.9258
    -5.2877  -5.2877  -5.2034  -5.2034  -1.5657  -1.5657  -1.0990  -1.0990
    -0.3250  -0.3250  -0.1838  -0.1838  -0.0514  -0.0514   0.0428   0.0428

          k =-0.5000-0.4875-0.7221 ( 26640 PWs)   bands (ev):

   -24.7448 -24.7448 -10.2086 -10.2086  -9.9812  -9.9812  -9.9566  -9.9566
    -5.3111  -5.3111  -4.9587  -4.9587  -1.8528  -1.8528  -1.2639  -1.2639
    -0.2300  -0.2300  -0.1804  -0.1804  -0.0387  -0.0387   0.1535   0.1535

     highest occupied level (ev):     0.3162

!    total energy              =    -156.44674776 Ry
     estimated scf accuracy    <          3.8E-11 Ry

     The total energy is the sum of the following terms:
     one-electron contribution =     -26.82993750 Ry
     hartree contribution      =      26.52924197 Ry
     xc contribution           =     -48.64843610 Ry
     ewald contribution        =    -107.49761612 Ry

     convergence has been achieved in  11 iterations

     Forces acting on atoms (cartesian axes, Ry/au):

     atom    1 type  2   force =     0.00000000    0.00000000    0.00000806
     atom    2 type  2   force =     0.00000000    0.00000000   -0.00000806
     atom    3 type  1   force =     0.00052799    0.00272579   -0.00001630
     atom    4 type  1   force =    -0.00052799   -0.00272579   -0.00001630
     atom    5 type  1   force =     0.00052799   -0.00272579    0.00001630
     atom    6 type  1   force =    -0.00052799    0.00272579    0.00001630
     atom    7 type  3   force =     0.02490756   -0.00636165   -0.00002396
     atom    8 type  3   force =    -0.02490756    0.00636165   -0.00002396
     atom    9 type  3   force =     0.02490756    0.00636165    0.00002396
     atom   10 type  3   force =    -0.02490756   -0.00636165    0.00002396
     atom   11 type  3   force =    -0.01644808   -0.01995099    0.00000977
     atom   12 type  3   force =     0.01644808    0.01995099    0.00000977
     atom   13 type  3   force =    -0.01644808    0.01995099   -0.00000977
     atom   14 type  3   force =     0.01644808   -0.01995099   -0.00000977
     atom   15 type  3   force =    -0.00310755    0.01465114    0.02224612
     atom   16 type  3   force =     0.00310755   -0.01465114    0.02224612
     atom   17 type  3   force =    -0.00310755   -0.01465114   -0.02224612
     atom   18 type  3   force =     0.00310755    0.01465114   -0.02224612
     atom   19 type  3   force =     0.00317347   -0.01467153   -0.02224827
     atom   20 type  3   force =    -0.00317347    0.01467153   -0.02224827
     atom   21 type  3   force =     0.00317347    0.01467153    0.02224827
     atom   22 type  3   force =    -0.00317347   -0.01467153    0.02224827

     Total force =     0.105388     Total SCF correction =     0.000004


     Computing stress (Cartesian axis) and pressure

          total   stress  (Ry/bohr**3)                   (kbar)     P=      -51.36
  -0.00032561   0.00000000   0.00000000          -47.90        0.00        0.00
   0.00000000  -0.00033180   0.00000000            0.00      -48.81        0.00
   0.00000000   0.00000000  -0.00039001            0.00        0.00      -57.37

     Volume is kept fixed: isostatic pressure set to zero

     BFGS Geometry Optimization
     Energy error            =      0.0E+00 Ry
     Gradient error          =      2.5E-02 Ry/Bohr
     Cell gradient error     =      6.0E+00 kbar

     number of scf cycles    =   1
     number of bfgs steps    =   0

     enthalpy           new  =    -156.4467477573 Ry

     new trust radius        =       0.0268385940 bohr
ibrav =      8
 celldm(1) =     13.05393785
 celldm(2) =      1.02541225
 celldm(3) =      0.69128015
Input lattice vectors:
     1.00058849     0.00000000     0.00000000
     0.00000000     1.02601569     0.00000000
     0.00000000     0.00000000     0.69168696
New lattice vectors in INITIAL alat:
     1.00058849     0.00000000     0.00000000
     0.00000000     1.02601569     0.00000000
     0.00000000     0.00000000     0.69168696
New lattice vectors in NEW alat (for information only):
     1.00000000     0.00000000     0.00000000
     0.00000000     1.02541225     0.00000000
     0.00000000     0.00000000     0.69128015
Discrepancy in bohr =     0.000000    0.000000    0.000000
     new conv_thr            =            1.0E-10 Ry

     new unit-cell volume =   1576.80217 a.u.^3 (   233.65797 Ang^3 )
     density =      2.37382 g/cm^3

CELL_PARAMETERS (alat= 13.04626025)
   1.000588490   0.000000000   0.000000000
   0.000000000   1.026015691   0.000000000
   0.000000000   0.000000000   0.691686962

ATOMIC_POSITIONS (crystal)
Ba               0.5000000000        0.5000000000        0.5001000583
Ba               0.0000000000        0.0000000000        0.9998999417
B                0.6102974864        0.2394061032        0.0000638524
B                0.3897025136        0.7605938968        0.0000638524
B                0.1102974864        0.2605938968        0.4999361476
B                0.8897025136        0.7394061032        0.4999361476
H                0.4360064250        0.2916802643        0.0002282806
H                0.5639935750        0.7083197357        0.0002282806
H                0.9360064250        0.2083197357        0.4997717194
H                0.0639935750        0.7916802643        0.4997717194
H                0.7207995171        0.3820638891       -0.0000072900
H                0.2792004829        0.6179361109       -0.0000072900
H                0.2207995171        0.1179361109        0.5000072900
H                0.7792004829        0.8820638891        0.5000072900
H                0.6390117301        0.1431894086        0.7829611323
H                0.3609882699        0.8568105914        0.7829611323
H                0.1390117301        0.3568105914        0.7170388677
H                0.8609882699        0.6431894086        0.7170388677
H                0.3607760785        0.8568593771        0.2170618914
H                0.6392239215        0.1431406229        0.2170618914
H                0.8607760785        0.6431406229        0.2829381086
H                0.1392239215        0.3568593771        0.2829381086



     Writing config-only to output data dir ./pwscf.save/ :
     XML data file
     NEW-OLD atomic charge density approx. for the potential

     total cpu time spent up to now is      287.1 secs

     Self-consistent Calculation

     iteration #  1     ecut=   100.00 Ry     beta= 0.70
     Davidson diagonalization with overlap
     ethr =  1.00E-06,  avg # of iterations =  5.0

     total cpu time spent up to now is      313.2 secs

     total energy              =    -156.45514618 Ry
     estimated scf accuracy    <       0.00274518 Ry

     iteration #  2     ecut=   100.00 Ry     beta= 0.70
     Davidson diagonalization with overlap
     ethr =  5.72E-06,  avg # of iterations =  2.0

     total cpu time spent up to now is      330.2 secs

     total energy              =    -156.45599433 Ry
     estimated scf accuracy    <       0.00074701 Ry

     iteration #  3     ecut=   100.00 Ry     beta= 0.70
     Davidson diagonalization with overlap
     ethr =  1.56E-06,  avg # of iterations =  2.0

     total cpu time spent up to now is      347.3 secs

     total energy              =    -156.45608938 Ry
     estimated scf accuracy    <       0.00001191 Ry

     iteration #  4     ecut=   100.00 Ry     beta= 0.70
     Davidson diagonalization with overlap
     ethr =  2.48E-08,  avg # of iterations =  3.0

     total cpu time spent up to now is      367.0 secs

     total energy              =    -156.45609545 Ry
     estimated scf accuracy    <       0.00000817 Ry

     iteration #  5     ecut=   100.00 Ry     beta= 0.70
     Davidson diagonalization with overlap
     ethr =  1.70E-08,  avg # of iterations =  2.0

     total cpu time spent up to now is      384.0 secs

     total energy              =    -156.45609585 Ry
     estimated scf accuracy    <       0.00000066 Ry

     iteration #  6     ecut=   100.00 Ry     beta= 0.70
     Davidson diagonalization with overlap
     ethr =  1.37E-09,  avg # of iterations =  2.9

     total cpu time spent up to now is      401.5 secs

     total energy              =    -156.45609613 Ry
     estimated scf accuracy    <       0.00000018 Ry

     iteration #  7     ecut=   100.00 Ry     beta= 0.70
     Davidson diagonalization with overlap
     ethr =  3.67E-10,  avg # of iterations =  2.0

     total cpu time spent up to now is      418.6 secs

     total energy              =    -156.45609615 Ry
     estimated scf accuracy    <          4.5E-09 Ry

     iteration #  8     ecut=   100.00 Ry     beta= 0.70
     Davidson diagonalization with overlap
     ethr =  9.27E-12,  avg # of iterations =  5.6

     total cpu time spent up to now is      443.6 secs

     End of self-consistent calculation

          k = 0.0000 0.0000 0.0000 ( 26643 PWs)   bands (ev):

   -24.7790 -24.7738 -10.1572 -10.1016  -9.9729  -9.9492  -9.9127  -9.8713
    -6.2922  -5.4401  -4.9696  -4.8001  -2.0159  -1.2012  -1.1613  -0.8013
    -0.4631  -0.4620  -0.4610  -0.2986  -0.1598   0.1938   0.2281   0.2630

          k = 0.0000 0.0000 0.3614 ( 26621 PWs)   bands (ev):

   -24.7742 -24.7705 -10.0926 -10.0842 -10.0643 -10.0562  -9.9618  -9.9493
    -5.9000  -5.2600  -5.0793  -4.9641  -1.6991  -1.4644  -1.0069  -0.9580
    -0.8501  -0.7575  -0.4308  -0.1796   0.0334   0.0385   0.1018   0.2430

          k = 0.0000 0.0000-0.7229 ( 26664 PWs)   bands (ev):

   -24.7682 -24.7682 -10.2374 -10.2373  -9.9943  -9.9942  -9.9734  -9.9734
    -5.2997  -5.2992  -5.1617  -5.1612  -1.4604  -1.4600  -1.4376  -1.4361
    -0.4913  -0.4904  -0.4519  -0.4505   0.0513   0.0515   0.0794   0.0800

          k = 0.0000 0.2437 0.0000 ( 26601 PWs)   bands (ev):

   -24.7783 -24.7746 -10.1366 -10.0820 -10.0041  -9.9713  -9.9065  -9.8772
    -6.1318  -5.3748  -5.1944  -4.8996  -1.7127  -1.3570  -1.2437  -0.5652
    -0.5516  -0.5280  -0.2604  -0.1698  -0.0836  -0.0819   0.1193   0.2020

          k = 0.0000 0.2437 0.3614 ( 26601 PWs)   bands (ev):

   -24.7736 -24.7710 -10.1168 -10.0859 -10.0419 -10.0391  -9.9655  -9.9626
    -5.8037  -5.3156  -5.1251  -5.0043  -1.5266  -1.4875  -1.2611  -0.7784
    -0.7395  -0.5553  -0.5437  -0.1363  -0.0366  -0.0198   0.0875   0.1436

          k = 0.0000 0.2437-0.7229 ( 26628 PWs)   bands (ev):

   -24.7682 -24.7682 -10.2470 -10.2469  -9.9829  -9.9829  -9.9728  -9.9728
    -5.4710  -5.4709  -4.9857  -4.9857  -1.5448  -1.5442  -1.3075  -1.3068
    -0.4276  -0.4262  -0.4164  -0.4161  -0.0847  -0.0846   0.0735   0.0738

          k = 0.0000-0.4873 0.0000 ( 26678 PWs)   bands (ev):

   -24.7764 -24.7764 -10.0822 -10.0822 -10.0214 -10.0214  -9.8917  -9.8917
    -5.7198  -5.7198  -5.1243  -5.1243  -1.4614  -1.4614  -0.8321  -0.8321
    -0.6204  -0.6204  -0.1676  -0.1676  -0.0584  -0.0584   0.0752   0.0752

          k = 0.0000-0.4873 0.3614 ( 26632 PWs)   bands (ev):

   -24.7723 -24.7723 -10.1136 -10.1136 -10.0129 -10.0129  -9.9811  -9.9811
    -5.5602  -5.5602  -5.0858  -5.0858  -1.4666  -1.4666  -1.0702  -1.0702
    -0.5342  -0.5342  -0.2702  -0.2702  -0.1205  -0.1205   0.0723   0.0723

          k = 0.0000-0.4873-0.7229 ( 26632 PWs)   bands (ev):

   -24.7682 -24.7682 -10.2558 -10.2558  -9.9761  -9.9761  -9.9684  -9.9684
    -5.5627  -5.5627  -4.8897  -4.8897  -1.6201  -1.6201  -1.1173  -1.1173
    -0.4703  -0.4703  -0.3458  -0.3458  -0.2548  -0.2548   0.1074   0.1074

          k = 0.2499 0.0000 0.0000 ( 26624 PWs)   bands (ev):

   -24.7783 -24.7746 -10.1314 -10.0878  -9.9999  -9.9798  -9.9065  -9.8772
    -6.1389  -5.4969  -4.9880  -4.9189  -1.8459  -1.1022  -1.0648  -0.9169
    -0.4606  -0.4077  -0.3446  -0.2818  -0.1943  -0.1776   0.1713   0.2144

          k = 0.2499 0.0000 0.3614 ( 26634 PWs)   bands (ev):

   -24.7736 -24.7710 -10.1092 -10.0946 -10.0625 -10.0218  -9.9766  -9.9536
    -5.7751  -5.2700  -5.0971  -5.0682  -1.6658  -1.4375  -1.2810  -0.8358
    -0.7831  -0.5773  -0.3519  -0.2247  -0.1226   0.0128   0.1831   0.1991

          k = 0.2499 0.0000-0.7229 ( 26622 PWs)   bands (ev):

   -24.7682 -24.7682 -10.2497 -10.2496  -9.9867  -9.9866  -9.9704  -9.9703
    -5.3046  -5.3042  -5.1352  -5.1349  -1.8688  -1.8684  -1.0771  -1.0767
    -0.4895  -0.4892  -0.2358  -0.2343  -0.1049  -0.1048   0.1167   0.1171

          k = 0.2499 0.2437 0.0000 ( 26640 PWs)   bands (ev):

   -24.7777 -24.7751 -10.1486 -10.0718 -10.0312  -9.9532  -9.9021  -9.8813
    -6.0142  -5.4642  -5.1695  -4.9677  -1.5978  -1.3104  -1.0790  -0.6592
    -0.5908  -0.5530  -0.2869  -0.1616  -0.1328  -0.0782   0.0086   0.1353

          k = 0.2499 0.2437 0.3614 ( 26642 PWs)   bands (ev):

   -24.7732 -24.7714 -10.1090 -10.0866 -10.0835 -10.0113  -9.9799  -9.9508
    -5.6935  -5.2784  -5.1935  -5.0750  -1.6259  -1.3882  -1.3286  -0.8300
    -0.6537  -0.5108  -0.4074  -0.2170  -0.1255  -0.0204   0.1074   0.1822

          k = 0.2499 0.2437-0.7229 ( 26590 PWs)   bands (ev):

   -24.7682 -24.7682 -10.2548 -10.2392  -9.9982  -9.9771  -9.9731  -9.9714
    -5.4667  -5.3487  -5.0874  -4.9676  -1.8450  -1.7867  -1.1268  -1.0724
    -0.5264  -0.5211  -0.2561  -0.2235  -0.0640  -0.0547   0.0664   0.1094

          k = 0.2499-0.4873 0.0000 ( 26648 PWs)   bands (ev):

   -24.7764 -24.7764 -10.1305 -10.1305  -9.9748  -9.9748  -9.8915  -9.8915
    -5.6961  -5.6961  -5.1456  -5.1456  -1.3638  -1.3638  -0.8460  -0.8460
    -0.6472  -0.6472  -0.2200  -0.2200  -0.0327  -0.0327   0.0080   0.0080

          k = 0.2499-0.4873 0.3614 ( 26630 PWs)   bands (ev):

   -24.7723 -24.7723 -10.1074 -10.1074 -10.0457 -10.0457  -9.9588  -9.9588
    -5.4867  -5.4867  -5.1480  -5.1480  -1.5351  -1.5351  -1.0402  -1.0402
    -0.5246  -0.5246  -0.2407  -0.2407  -0.1210  -0.1210   0.0852   0.0852

          k = 0.2499-0.4873-0.7229 ( 26572 PWs)   bands (ev):

   -24.7682 -24.7682 -10.2450 -10.2450  -9.9877  -9.9877  -9.9745  -9.9745
    -5.4843  -5.4843  -4.9466  -4.9466  -1.7515  -1.7515  -1.1668  -1.1668
    -0.4303  -0.4303  -0.3131  -0.3131  -0.0810  -0.0810   0.0987   0.0987

          k =-0.4997 0.0000 0.0000 ( 26634 PWs)   bands (ev):

   -24.7764 -24.7764 -10.0716 -10.0716 -10.0368 -10.0368  -9.8917  -9.8917
    -5.7797  -5.7797  -5.0095  -5.0095  -1.4675  -1.4675  -0.7492  -0.7492
    -0.4195  -0.4195  -0.3929  -0.3929  -0.2961  -0.2961   0.0834   0.0834

          k =-0.4997 0.0000 0.3614 ( 26658 PWs)   bands (ev):

   -24.7723 -24.7723 -10.1146 -10.1146 -10.0260 -10.0260  -9.9734  -9.9734
    -5.4794  -5.4794  -5.1293  -5.1293  -1.5817  -1.5817  -1.0861  -1.0861
    -0.5335  -0.5335  -0.3614  -0.3614  -0.0230  -0.0230   0.1669   0.1669

          k =-0.4997 0.0000-0.7229 ( 26560 PWs)   bands (ev):

   -24.7682 -24.7682 -10.2610 -10.2610  -9.9817  -9.9817  -9.9655  -9.9655
    -5.3115  -5.3115  -5.1054  -5.1054  -2.0573  -2.0573  -0.8514  -0.8514
    -0.5044  -0.5044  -0.3355  -0.3355   0.0503   0.0503   0.0962   0.0962

          k =-0.4997 0.2437 0.0000 ( 26626 PWs)   bands (ev):

   -24.7764 -24.7764 -10.1297 -10.1297  -9.9780  -9.9780  -9.8915  -9.8915
    -5.7318  -5.7318  -5.0826  -5.0826  -1.3737  -1.3737  -0.7555  -0.7555
    -0.5870  -0.5870  -0.4210  -0.4210  -0.1115  -0.1115   0.0600   0.0600

          k =-0.4997 0.2437 0.3614 ( 26632 PWs)   bands (ev):

   -24.7723 -24.7723 -10.1081 -10.1081 -10.0492 -10.0492  -9.9578  -9.9578
    -5.4345  -5.4345  -5.1815  -5.1815  -1.5837  -1.5837  -1.0720  -1.0720
    -0.4969  -0.4969  -0.3145  -0.3145  -0.0317  -0.0317   0.1067   0.1067

          k =-0.4997 0.2437-0.7229 ( 26620 PWs)   bands (ev):

   -24.7682 -24.7682 -10.2478 -10.2478  -9.9894  -9.9894  -9.9739  -9.9739
    -5.3514  -5.3514  -5.0616  -5.0616  -1.9751  -1.9751  -1.0258  -1.0258
    -0.4606  -0.4606  -0.2841  -0.2841   0.0169   0.0169   0.1361   0.1361

          k =-0.4997-0.4873 0.0000 ( 26640 PWs)   bands (ev):

   -24.7764 -24.7764 -10.1593 -10.1593  -9.9476  -9.9476  -9.8913  -9.8913
    -5.6716  -5.6716  -5.1671  -5.1671  -1.2353  -1.2353  -0.8958  -0.8958
    -0.6720  -0.6720  -0.2326  -0.2326  -0.0945  -0.0945  -0.0091  -0.0091

          k =-0.4997-0.4873 0.3614 ( 26644 PWs)   bands (ev):

   -24.7723 -24.7723 -10.0972 -10.0972 -10.0712 -10.0712  -9.9477  -9.9477
    -5.3521  -5.3521  -5.2709  -5.2709  -1.5661  -1.5661  -1.1213  -1.1213
    -0.3597  -0.3597  -0.2282  -0.2282  -0.0937  -0.0937   0.0024   0.0024

          k =-0.4997-0.4873-0.7229 ( 26640 PWs)   bands (ev):

   -24.7682 -24.7682 -10.2330 -10.2330 -10.0027 -10.0027  -9.9783  -9.9783
    -5.3820  -5.3820  -5.0269  -5.0269  -1.8440  -1.8440  -1.2759  -1.2759
    -0.2712  -0.2712  -0.2250  -0.2250  -0.0793  -0.0793   0.1082   0.1082

     highest occupied level (ev):     0.2630

!    total energy              =    -156.45609616 Ry
     estimated scf accuracy    <          6.7E-11 Ry

     The total energy is the sum of the following terms:
     one-electron contribution =     -27.59651817 Ry
     hartree contribution      =      26.91357277 Ry
     xc contribution           =     -48.74393731 Ry
     ewald contribution        =    -107.02921345 Ry

     convergence has been achieved in   8 iterations

     Forces acting on atoms (cartesian axes, Ry/au):

     atom    1 type  2   force =     0.00000000    0.00000000    0.00000649
     atom    2 type  2   force =     0.00000000    0.00000000   -0.00000649
     atom    3 type  1   force =     0.00073395    0.00301092   -0.00001061
     atom    4 type  1   force =    -0.00073395   -0.00301092   -0.00001061
     atom    5 type  1   force =     0.00073395   -0.00301092    0.00001061
     atom    6 type  1   force =    -0.00073395    0.00301092    0.00001061
     atom    7 type  3   force =     0.01686081   -0.00397162   -0.00001918
     atom    8 type  3   force =    -0.01686081    0.00397162   -0.00001918
     atom    9 type  3   force =     0.01686081    0.00397162    0.00001918
     atom   10 type  3   force =    -0.01686081   -0.00397162    0.00001918
     atom   11 type  3   force =    -0.01116952   -0.01289308    0.00000646
     atom   12 type  3   force =     0.01116952    0.01289308    0.00000646
     atom   13 type  3   force =    -0.01116952    0.01289308   -0.00000646
     atom   14 type  3   force =     0.01116952   -0.01289308   -0.00000646
     atom   15 type  3   force =    -0.00174813    0.00989662    0.01451787
     atom   16 type  3   force =     0.00174813   -0.00989662    0.01451787
     atom   17 type  3   force =    -0.00174813   -0.00989662   -0.01451787
     atom   18 type  3   force =     0.00174813    0.00989662   -0.01451787
     atom   19 type  3   force =     0.00180142   -0.00991450   -0.01452566
     atom   20 type  3   force =    -0.00180142    0.00991450   -0.01452566
     atom   21 type  3   force =     0.00180142    0.00991450    0.01452566
     atom   22 type  3   force =    -0.00180142   -0.00991450    0.01452566

     Total force =     0.069999     Total SCF correction =     0.000002


     Computing stress (Cartesian axis) and pressure

          total   stress  (Ry/bohr**3)                   (kbar)     P=      -41.13
  -0.00026085   0.00000000   0.00000000          -38.37        0.00        0.00
   0.00000000  -0.00026531   0.00000000            0.00      -39.03        0.00
   0.00000000   0.00000000  -0.00031256            0.00        0.00      -45.98

     Volume is kept fixed: isostatic pressure set to zero
     Energy error            =      9.3E-03 Ry
     Gradient error          =      1.7E-02 Ry/Bohr
     Cell gradient error     =      4.9E+00 kbar

     number of scf cycles    =   2
     number of bfgs steps    =   1

     enthalpy           old  =    -156.4467477573 Ry
     enthalpy           new  =    -156.4560961586 Ry

     CASE: enthalpy          _new < enthalpy          _old

     new trust radius        =       0.0402351928 bohr
ibrav =      8
 celldm(1) =     13.06787007
 celldm(2) =      1.02515270
 celldm(3) =      0.68924595
Input lattice vectors:
     1.00165640     0.00000000     0.00000000
     0.00000000     1.02685076     0.00000000
     0.00000000     0.00000000     0.69038762
New lattice vectors in INITIAL alat:
     1.00165640     0.00000000     0.00000000
     0.00000000     1.02685076     0.00000000
     0.00000000     0.00000000     0.69038762
New lattice vectors in NEW alat (for information only):
     1.00000000     0.00000000     0.00000000
     0.00000000     1.02515270     0.00000000
     0.00000000     0.00000000     0.68924595
Discrepancy in bohr =     0.000000    0.000000    0.000000
     new conv_thr            =            1.0E-10 Ry

     new unit-cell volume =   1576.80217 a.u.^3 (   233.65797 Ang^3 )
     density =      2.37382 g/cm^3

CELL_PARAMETERS (alat= 13.04626025)
   1.001656399   0.000000000   0.000000000
   0.000000000   1.026850764   0.000000000
   0.000000000   0.000000000   0.690387620

ATOMIC_POSITIONS (crystal)
Ba               0.5000000000        0.5000000000        0.5001016927
Ba               0.0000000000        0.0000000000        0.9998983073
B                0.6104254293        0.2399180905        0.0000611800
B                0.3895745707        0.7600819095        0.0000611800
B                0.1104254293        0.2600819095        0.4999388200
B                0.8895745707        0.7399180905        0.4999388200
H                0.4389523546        0.2910034916        0.0002234525
H                0.5610476454        0.7089965084        0.0002234525
H                0.9389523546        0.2089965084        0.4997765475
H                0.0610476454        0.7910034916        0.4997765475
H                0.7188480003        0.3798672428       -0.0000056626
H                0.2811519997        0.6201327572       -0.0000056626
H                0.2188480003        0.1201327572        0.5000056626
H                0.7811519997        0.8798672428        0.5000056626
H                0.6387060193        0.1448751940        0.7866193514
H                0.3612939807        0.8551248060        0.7866193514
H                0.1387060193        0.3551248060        0.7133806486
H                0.8612939807        0.6448751940        0.7133806486
H                0.3610910943        0.8551705490        0.2134017163
H                0.6389089057        0.1448294510        0.2134017163
H                0.8610910943        0.6448294510        0.2865982837
H                0.1389089057        0.3551705490        0.2865982837



     Writing config-only to output data dir ./pwscf.save/ :
     XML data file
     NEW-OLD atomic charge density approx. for the potential

     total cpu time spent up to now is      477.2 secs

     Self-consistent Calculation

     iteration #  1     ecut=   100.00 Ry     beta= 0.70
     Davidson diagonalization with overlap
     ethr =  1.00E-06,  avg # of iterations =  5.4

     total cpu time spent up to now is      506.4 secs

     total energy              =    -156.46059768 Ry
     estimated scf accuracy    <       0.00655383 Ry

     iteration #  2     ecut=   100.00 Ry     beta= 0.70
     Davidson diagonalization with overlap
     ethr =  1.37E-05,  avg # of iterations =  2.0

     total cpu time spent up to now is      523.4 secs

     total energy              =    -156.46259410 Ry
     estimated scf accuracy    <       0.00173807 Ry

     iteration #  3     ecut=   100.00 Ry     beta= 0.70
     Davidson diagonalization with overlap
     ethr =  3.62E-06,  avg # of iterations =  2.0

     total cpu time spent up to now is      540.4 secs

     total energy              =    -156.46282525 Ry
     estimated scf accuracy    <       0.00002351 Ry

     iteration #  4     ecut=   100.00 Ry     beta= 0.70
     Davidson diagonalization with overlap
     ethr =  4.90E-08,  avg # of iterations =  3.0

     total cpu time spent up to now is      560.3 secs

     total energy              =    -156.46283674 Ry
     estimated scf accuracy    <       0.00001365 Ry

     iteration #  5     ecut=   100.00 Ry     beta= 0.70
     Davidson diagonalization with overlap
     ethr =  2.84E-08,  avg # of iterations =  2.0

     total cpu time spent up to now is      577.3 secs

     total energy              =    -156.46283775 Ry
     estimated scf accuracy    <       0.00000082 Ry

     iteration #  6     ecut=   100.00 Ry     beta= 0.70
     Davidson diagonalization with overlap
     ethr =  1.71E-09,  avg # of iterations =  3.0

     total cpu time spent up to now is      595.2 secs

     total energy              =    -156.46283811 Ry
     estimated scf accuracy    <       0.00000027 Ry

     iteration #  7     ecut=   100.00 Ry     beta= 0.70
     Davidson diagonalization with overlap
     ethr =  5.56E-10,  avg # of iterations =  2.0

     total cpu time spent up to now is      612.2 secs

     total energy              =    -156.46283815 Ry
     estimated scf accuracy    <          5.9E-09 Ry

     iteration #  8     ecut=   100.00 Ry     beta= 0.70
     Davidson diagonalization with overlap
     ethr =  1.22E-11,  avg # of iterations =  6.0

     total cpu time spent up to now is      639.7 secs

     total energy              =    -156.46283816 Ry
     estimated scf accuracy    <          2.3E-10 Ry

     iteration #  9     ecut=   100.00 Ry     beta= 0.70
     Davidson diagonalization with overlap
     ethr =  4.71E-13,  avg # of iterations =  5.1

     total cpu time spent up to now is      663.3 secs

     total energy              =    -156.46283816 Ry
     estimated scf accuracy    <          2.3E-10 Ry

     iteration # 10     ecut=   100.00 Ry     beta= 0.70
     Davidson diagonalization with overlap
     ethr =  4.71E-13,  avg # of iterations =  1.0

     total cpu time spent up to now is      676.7 secs

     total energy              =    -156.46283816 Ry
     estimated scf accuracy    <          3.1E-10 Ry

     iteration # 11     ecut=   100.00 Ry     beta= 0.70
     Davidson diagonalization with overlap
     ethr =  4.71E-13,  avg # of iterations =  5.0

     total cpu time spent up to now is      699.9 secs

     total energy              =    -156.46283816 Ry
     estimated scf accuracy    <          1.6E-09 Ry

     iteration # 12     ecut=   100.00 Ry     beta= 0.70
     Davidson diagonalization with overlap
     ethr =  4.71E-13,  avg # of iterations =  2.0

     total cpu time spent up to now is      718.6 secs

     total energy              =    -156.46283816 Ry
     estimated scf accuracy    <          3.9E-10 Ry

     iteration # 13     ecut=   100.00 Ry     beta= 0.70
     Davidson diagonalization with overlap
     ethr =  4.71E-13,  avg # of iterations =  3.0

     total cpu time spent up to now is      738.5 secs

     End of self-consistent calculation

          k = 0.0000 0.0000 0.0000 ( 26643 PWs)   bands (ev):

   -24.8138 -24.8087 -10.1921 -10.1354 -10.0059  -9.9819  -9.9444  -9.9036
    -6.3652  -5.5524  -5.0778  -4.9154  -2.0192  -1.2234  -1.2064  -0.8677
    -0.5123  -0.4948  -0.4941  -0.3469  -0.2004   0.1192   0.1476   0.1775

          k = 0.0000 0.0000 0.3621 ( 26621 PWs)   bands (ev):

   -24.8089 -24.8052 -10.1262 -10.1192 -10.0998 -10.0893  -9.9943  -9.9818
    -5.9765  -5.3680  -5.1917  -5.0820  -1.6968  -1.4747  -1.0201  -1.0050
    -0.8889  -0.7960  -0.4831  -0.2421  -0.0383  -0.0357   0.0362   0.1643

          k = 0.0000 0.0000-0.7242 ( 26664 PWs)   bands (ev):

   -24.8028 -24.8028 -10.2753 -10.2752 -10.0260 -10.0260 -10.0059 -10.0059
    -5.3926  -5.3922  -5.2799  -5.2795  -1.4614  -1.4610  -1.4401  -1.4388
    -0.5506  -0.5499  -0.5089  -0.5074  -0.0159  -0.0158   0.0039   0.0043

          k = 0.0000 0.2435 0.0000 ( 26601 PWs)   bands (ev):

   -24.8131 -24.8094 -10.1714 -10.1162 -10.0368 -10.0041  -9.9383  -9.9094
    -6.2079  -5.4875  -5.2924  -5.0141  -1.7273  -1.3790  -1.2796  -0.6008
    -0.5969  -0.5948  -0.3123  -0.2162  -0.1534  -0.1294   0.0456   0.1230

          k = 0.0000 0.2435 0.3621 ( 26601 PWs)   bands (ev):

   -24.8083 -24.8058 -10.1511 -10.1209 -10.0764 -10.0723  -9.9982  -9.9950
    -5.8842  -5.4209  -5.2337  -5.1199  -1.5302  -1.4967  -1.2822  -0.8098
    -0.7804  -0.6146  -0.5887  -0.1994  -0.1066  -0.0911   0.0194   0.0693

          k = 0.0000 0.2435-0.7242 ( 26628 PWs)   bands (ev):

   -24.8028 -24.8028 -10.2847 -10.2846 -10.0147 -10.0147 -10.0054 -10.0054
    -5.5744  -5.5743  -5.0928  -5.0927  -1.5480  -1.5474  -1.3108  -1.3102
    -0.4864  -0.4857  -0.4754  -0.4744  -0.1488  -0.1487  -0.0026  -0.0023

          k = 0.0000-0.4869 0.0000 ( 26678 PWs)   bands (ev):

   -24.8112 -24.8112 -10.1172 -10.1172 -10.0535 -10.0535  -9.9237  -9.9237
    -5.8055  -5.8055  -5.2363  -5.2363  -1.4812  -1.4812  -0.8799  -0.8799
    -0.6582  -0.6582  -0.2421  -0.2421  -0.1062  -0.1062   0.0056   0.0056

          k = 0.0000-0.4869 0.3621 ( 26632 PWs)   bands (ev):

   -24.8070 -24.8070 -10.1480 -10.1480 -10.0473 -10.0473 -10.0132 -10.0132
    -5.6519  -5.6519  -5.1970  -5.1970  -1.4749  -1.4749  -1.0966  -1.0966
    -0.5846  -0.5846  -0.3230  -0.3230  -0.1944  -0.1944   0.0021   0.0021

          k = 0.0000-0.4869-0.7242 ( 26632 PWs)   bands (ev):

   -24.8028 -24.8028 -10.2933 -10.2933 -10.0083 -10.0083 -10.0007 -10.0007
    -5.6673  -5.6673  -4.9949  -4.9949  -1.6230  -1.6230  -1.1211  -1.1211
    -0.5343  -0.5343  -0.3990  -0.3990  -0.3194  -0.3194   0.0294   0.0294

          k = 0.2496 0.0000 0.0000 ( 26624 PWs)   bands (ev):

   -24.8131 -24.8094 -10.1663 -10.1217 -10.0329 -10.0124  -9.9383  -9.9094
    -6.2157  -5.6026  -5.0975  -5.0311  -1.8532  -1.1299  -1.1019  -0.9687
    -0.4923  -0.4582  -0.3862  -0.3415  -0.2416  -0.2402   0.0918   0.1291

          k = 0.2496 0.0000 0.3621 ( 26634 PWs)   bands (ev):

   -24.8083 -24.8057 -10.1436 -10.1293 -10.0965 -10.0558 -10.0087  -9.9863
    -5.8555  -5.3744  -5.2099  -5.1830  -1.6602  -1.4568  -1.2870  -0.8762
    -0.8343  -0.6214  -0.4116  -0.2872  -0.1838  -0.0530   0.1039   0.1266

          k = 0.2496 0.0000-0.7242 ( 26622 PWs)   bands (ev):

   -24.8028 -24.8028 -10.2874 -10.2873 -10.0183 -10.0183 -10.0031 -10.0030
    -5.4115  -5.4111  -5.2404  -5.2401  -1.8612  -1.8607  -1.0913  -1.0909
    -0.5505  -0.5502  -0.2941  -0.2926  -0.1700  -0.1699   0.0424   0.0427

          k = 0.2496 0.2435 0.0000 ( 26640 PWs)   bands (ev):

   -24.8125 -24.8099 -10.1829 -10.1067 -10.0633  -9.9861  -9.9339  -9.9135
    -6.0947  -5.5699  -5.2716  -5.0774  -1.6166  -1.3381  -1.1173  -0.7082
    -0.6270  -0.5921  -0.3517  -0.2085  -0.2011  -0.1268  -0.0676   0.0612

          k = 0.2496 0.2435 0.3621 ( 26642 PWs)   bands (ev):

   -24.8079 -24.8061 -10.1437 -10.1199 -10.1181 -10.0459 -10.0120  -9.9834
    -5.7777  -5.3848  -5.2986  -5.1884  -1.6254  -1.3955  -1.3508  -0.8701
    -0.7022  -0.5582  -0.4648  -0.2758  -0.1928  -0.0896   0.0364   0.1095

          k = 0.2496 0.2435-0.7242 ( 26590 PWs)   bands (ev):

   -24.8028 -24.8028 -10.2926 -10.2768 -10.0300 -10.0092 -10.0051 -10.0041
    -5.5737  -5.4540  -5.1940  -5.0722  -1.8384  -1.7794  -1.1425  -1.0858
    -0.5858  -0.5807  -0.3094  -0.2828  -0.1369  -0.1218  -0.0007   0.0291

          k = 0.2496-0.4869 0.0000 ( 26648 PWs)   bands (ev):

   -24.8112 -24.8112 -10.1646 -10.1646 -10.0077 -10.0077  -9.9236  -9.9236
    -5.7873  -5.7873  -5.2506  -5.2506  -1.3915  -1.3915  -0.8928  -0.8928
    -0.6835  -0.6835  -0.2837  -0.2837  -0.0824  -0.0824  -0.0645  -0.0645

          k = 0.2496-0.4869 0.3621 ( 26630 PWs)   bands (ev):

   -24.8070 -24.8070 -10.1416 -10.1416 -10.0798 -10.0798  -9.9914  -9.9914
    -5.5812  -5.5812  -5.2564  -5.2564  -1.5398  -1.5398  -1.0736  -1.0736
    -0.5723  -0.5723  -0.2999  -0.2999  -0.1895  -0.1895   0.0158   0.0158

          k = 0.2496-0.4869-0.7242 ( 26572 PWs)   bands (ev):

   -24.8028 -24.8028 -10.2827 -10.2827 -10.0195 -10.0195 -10.0070 -10.0070
    -5.5905  -5.5905  -5.0517  -5.0517  -1.7456  -1.7456  -1.1821  -1.1821
    -0.4902  -0.4902  -0.3691  -0.3691  -0.1495  -0.1495   0.0237   0.0237

          k =-0.4992 0.0000 0.0000 ( 26634 PWs)   bands (ev):

   -24.8112 -24.8112 -10.1070 -10.1070 -10.0686 -10.0686  -9.9237  -9.9237
    -5.8681  -5.8681  -5.1213  -5.1213  -1.4842  -1.4842  -0.7915  -0.7915
    -0.4595  -0.4595  -0.4530  -0.4530  -0.3472  -0.3472   0.0023   0.0023

          k =-0.4992 0.0000 0.3621 ( 26658 PWs)   bands (ev):

   -24.8070 -24.8070 -10.1492 -10.1492 -10.0597 -10.0597 -10.0060 -10.0060
    -5.5703  -5.5703  -5.2434  -5.2434  -1.5801  -1.5801  -1.1171  -1.1171
    -0.5887  -0.5887  -0.4189  -0.4189  -0.0850  -0.0850   0.0898   0.0898

          k =-0.4992 0.0000-0.7242 ( 26560 PWs)   bands (ev):

   -24.8028 -24.8028 -10.2986 -10.2986 -10.0134 -10.0134  -9.9981  -9.9981
    -5.4265  -5.4265  -5.2036  -5.2036  -2.0456  -2.0456  -0.8703  -0.8703
    -0.5652  -0.5652  -0.3951  -0.3951  -0.0120  -0.0120   0.0176   0.0176

          k =-0.4992 0.2435 0.0000 ( 26626 PWs)   bands (ev):

   -24.8112 -24.8112 -10.1637 -10.1637 -10.0110 -10.0110  -9.9236  -9.9236
    -5.8238  -5.8238  -5.1880  -5.1880  -1.4006  -1.4006  -0.7982  -0.7982
    -0.6229  -0.6229  -0.4821  -0.4821  -0.1609  -0.1609  -0.0178  -0.0178

          k =-0.4992 0.2435 0.3621 ( 26632 PWs)   bands (ev):

   -24.8070 -24.8070 -10.1423 -10.1423 -10.0832 -10.0832  -9.9904  -9.9904
    -5.5282  -5.5282  -5.2916  -5.2916  -1.5847  -1.5847  -1.1044  -1.1044
    -0.5529  -0.5529  -0.3711  -0.3711  -0.0959  -0.0959   0.0343   0.0343

          k =-0.4992 0.2435-0.7242 ( 26620 PWs)   bands (ev):

   -24.8028 -24.8028 -10.2856 -10.2856 -10.0210 -10.0210 -10.0065 -10.0065
    -5.4624  -5.4624  -5.1637  -5.1637  -1.9640  -1.9640  -1.0448  -1.0448
    -0.5203  -0.5203  -0.3444  -0.3444  -0.0518  -0.0518   0.0630   0.0630

          k =-0.4992-0.4869 0.0000 ( 26640 PWs)   bands (ev):

   -24.8112 -24.8112 -10.1931 -10.1931  -9.9806  -9.9806  -9.9234  -9.9234
    -5.7691  -5.7691  -5.2646  -5.2646  -1.2786  -1.2786  -0.9296  -0.9296
    -0.7068  -0.7068  -0.2991  -0.2991  -0.1605  -0.1605  -0.0604  -0.0604

          k =-0.4992-0.4869 0.3621 ( 26644 PWs)   bands (ev):

   -24.8070 -24.8070 -10.1302 -10.1302 -10.1065 -10.1065  -9.9803  -9.9803
    -5.4517  -5.4517  -5.3742  -5.3742  -1.5688  -1.5688  -1.1551  -1.1551
    -0.4118  -0.4118  -0.2970  -0.2970  -0.1607  -0.1607  -0.0568  -0.0568

          k =-0.4992-0.4869-0.7242 ( 26640 PWs)   bands (ev):

   -24.8028 -24.8028 -10.2709 -10.2709 -10.0344 -10.0344 -10.0107 -10.0107
    -5.4908  -5.4908  -5.1313  -5.1313  -1.8331  -1.8331  -1.2931  -1.2931
    -0.3317  -0.3317  -0.2943  -0.2943  -0.1470  -0.1470   0.0413   0.0413

     highest occupied level (ev):     0.1775

!    total energy              =    -156.46283816 Ry
     estimated scf accuracy    <          5.3E-12 Ry

     The total energy is the sum of the following terms:
     one-electron contribution =     -28.81331398 Ry
     hartree contribution      =      27.52497742 Ry
     xc contribution           =     -48.89223758 Ry
     ewald contribution        =    -106.28226402 Ry

     convergence has been achieved in  13 iterations

     Forces acting on atoms (cartesian axes, Ry/au):

     atom    1 type  2   force =     0.00000000    0.00000000    0.00000409
     atom    2 type  2   force =     0.00000000    0.00000000   -0.00000409
     atom    3 type  1   force =     0.00066057    0.00221082   -0.00000782
     atom    4 type  1   force =    -0.00066057   -0.00221082   -0.00000782
     atom    5 type  1   force =     0.00066057   -0.00221082    0.00000782
     atom    6 type  1   force =    -0.00066057    0.00221082    0.00000782
     atom    7 type  3   force =     0.00367999   -0.00003261   -0.00001160
     atom    8 type  3   force =    -0.00367999    0.00003261   -0.00001160
     atom    9 type  3   force =     0.00367999    0.00003261    0.00001160
     atom   10 type  3   force =    -0.00367999   -0.00003261    0.00001160
     atom   11 type  3   force =    -0.00203622   -0.00073014    0.00000134
     atom   12 type  3   force =     0.00203622    0.00073014    0.00000134
     atom   13 type  3   force =    -0.00203622    0.00073014   -0.00000134
     atom   14 type  3   force =     0.00203622   -0.00073014   -0.00000134
     atom   15 type  3   force =     0.00043801    0.00239211    0.00216178
     atom   16 type  3   force =    -0.00043801   -0.00239211    0.00216178
     atom   17 type  3   force =     0.00043801   -0.00239211   -0.00216178
     atom   18 type  3   force =    -0.00043801    0.00239211   -0.00216178
     atom   19 type  3   force =    -0.00040607   -0.00240229   -0.00217251
     atom   20 type  3   force =     0.00040607    0.00240229   -0.00217251
     atom   21 type  3   force =    -0.00040607    0.00240229    0.00217251
     atom   22 type  3   force =     0.00040607   -0.00240229    0.00217251

     Total force =     0.013385     Total SCF correction =     0.000001


     Computing stress (Cartesian axis) and pressure

          total   stress  (Ry/bohr**3)                   (kbar)     P=      -24.72
  -0.00015528   0.00000000   0.00000000          -22.84        0.00        0.00
   0.00000000  -0.00015759   0.00000000            0.00      -23.18        0.00
   0.00000000   0.00000000  -0.00019117            0.00        0.00      -28.12

     Volume is kept fixed: isostatic pressure set to zero
     Energy error            =      6.7E-03 Ry
     Gradient error          =      3.7E-03 Ry/Bohr
     Cell gradient error     =      3.4E+00 kbar

     number of scf cycles    =   3
     number of bfgs steps    =   2

     enthalpy           old  =    -156.4560961586 Ry
     enthalpy           new  =    -156.4628381627 Ry

     CASE: enthalpy          _new < enthalpy          _old

     new trust radius        =       0.0095340498 bohr
ibrav =      8
 celldm(1) =     13.07473456
 celldm(2) =      1.02504780
 celldm(3) =      0.68823134
Input lattice vectors:
     1.00218256     0.00000000     0.00000000
     0.00000000     1.02728504     0.00000000
     0.00000000     0.00000000     0.68973345
New lattice vectors in INITIAL alat:
     1.00218256     0.00000000     0.00000000
     0.00000000     1.02728504     0.00000000
     0.00000000     0.00000000     0.68973345
New lattice vectors in NEW alat (for information only):
     1.00000000     0.00000000     0.00000000
     0.00000000     1.02504780     0.00000000
     0.00000000     0.00000000     0.68823134
Discrepancy in bohr =     0.000000    0.000000    0.000000
     new conv_thr            =            1.0E-10 Ry

     new unit-cell volume =   1576.80217 a.u.^3 (   233.65797 Ang^3 )
     density =      2.37382 g/cm^3

CELL_PARAMETERS (alat= 13.04626025)
   1.002182564   0.000000000   0.000000000
   0.000000000   1.027285036   0.000000000
   0.000000000   0.000000000   0.689733453

ATOMIC_POSITIONS (crystal)
Ba               0.5000000000        0.5000000000        0.5001024523
Ba               0.0000000000        0.0000000000        0.9998975477
B                0.6105033344        0.2401844974        0.0000597845
B                0.3894966656        0.7598155026        0.0000597845
B                0.1105033344        0.2598155026        0.4999402155
B                0.8894966656        0.7401844974        0.4999402155
H                0.4396760125        0.2909130138        0.0002212744
H                0.5603239875        0.7090869862        0.0002212744
H                0.9396760125        0.2090869862        0.4997787256
H                0.0603239875        0.7909130138        0.4997787256
H                0.7184061885        0.3795171023       -0.0000052732
H                0.2815938115        0.6204828977       -0.0000052732
H                0.2184061885        0.1204828977        0.5000052732
H                0.7815938115        0.8795171023        0.5000052732
H                0.6387072530        0.1453104174        0.7873820549
H                0.3612927470        0.8546895826        0.7873820549
H                0.1387072530        0.3546895826        0.7126179451
H                0.8612927470        0.6453104174        0.7126179451
H                0.3610940381        0.8547340096        0.2126373265
H                0.6389059619        0.1452659904        0.2126373265
H                0.8610940381        0.6452659904        0.2873626735
H                0.1389059619        0.3547340096        0.2873626735



     Writing config-only to output data dir ./pwscf.save/ :
     XML data file
     NEW-OLD atomic charge density approx. for the potential

     total cpu time spent up to now is      772.0 secs

     Self-consistent Calculation

     iteration #  1     ecut=   100.00 Ry     beta= 0.70
     Davidson diagonalization with overlap
     ethr =  1.00E-06,  avg # of iterations =  3.0

     total cpu time spent up to now is      794.0 secs

     total energy              =    -156.46304207 Ry
     estimated scf accuracy    <       0.00027781 Ry

     iteration #  2     ecut=   100.00 Ry     beta= 0.70
     Davidson diagonalization with overlap
     ethr =  5.79E-07,  avg # of iterations =  2.0

     total cpu time spent up to now is      811.1 secs

     total energy              =    -156.46311438 Ry
     estimated scf accuracy    <       0.00004680 Ry

     iteration #  3     ecut=   100.00 Ry     beta= 0.70
     Davidson diagonalization with overlap
     ethr =  9.75E-08,  avg # of iterations =  2.0

     total cpu time spent up to now is      828.1 secs

     total energy              =    -156.46312129 Ry
     estimated scf accuracy    <       0.00000045 Ry

     iteration #  4     ecut=   100.00 Ry     beta= 0.70
     Davidson diagonalization with overlap
     ethr =  9.31E-10,  avg # of iterations =  3.7

     total cpu time spent up to now is      849.4 secs

     total energy              =    -156.46312151 Ry
     estimated scf accuracy    <       0.00000030 Ry

     iteration #  5     ecut=   100.00 Ry     beta= 0.70
     Davidson diagonalization with overlap
     ethr =  6.15E-10,  avg # of iterations =  2.0

     total cpu time spent up to now is      866.5 secs

     total energy              =    -156.46312157 Ry
     estimated scf accuracy    <          3.0E-09 Ry

     iteration #  6     ecut=   100.00 Ry     beta= 0.70
     Davidson diagonalization with overlap
     ethr =  6.22E-12,  avg # of iterations =  6.7

     total cpu time spent up to now is      897.1 secs

     total energy              =    -156.46312158 Ry
     estimated scf accuracy    <          1.9E-09 Ry

     iteration #  7     ecut=   100.00 Ry     beta= 0.70
     Davidson diagonalization with overlap
     ethr =  3.97E-12,  avg # of iterations =  2.0

     total cpu time spent up to now is      914.1 secs

     End of self-consistent calculation

          k = 0.0000 0.0000 0.0000 ( 26643 PWs)   bands (ev):

   -24.8202 -24.8151 -10.1992 -10.1421 -10.0123  -9.9882  -9.9502  -9.9097
    -6.3820  -5.5777  -5.1021  -4.9416  -2.0233  -1.2301  -1.2178  -0.8852
    -0.5201  -0.5069  -0.4963  -0.3548  -0.2048   0.1010   0.1279   0.1546

          k = 0.0000 0.0000 0.3625 ( 26621 PWs)   bands (ev):

   -24.8152 -24.8116 -10.1327 -10.1268 -10.1076 -10.0956 -10.0005  -9.9880
    -5.9929  -5.3912  -5.2175  -5.1092  -1.6981  -1.4786  -1.0250  -1.0167
    -0.8967  -0.8020  -0.4942  -0.2553  -0.0571  -0.0535   0.0220   0.1441

          k = 0.0000 0.0000-0.7249 ( 26664 PWs)   bands (ev):

   -24.8092 -24.8092 -10.2843 -10.2842 -10.0318 -10.0318 -10.0121 -10.0120
    -5.4116  -5.4111  -5.3076  -5.3071  -1.4606  -1.4601  -1.4425  -1.4412
    -0.5643  -0.5636  -0.5224  -0.5209  -0.0337  -0.0336  -0.0134  -0.0131

          k = 0.0000 0.2434 0.0000 ( 26601 PWs)   bands (ev):

   -24.8195 -24.8159 -10.1784 -10.1231 -10.0432 -10.0104  -9.9442  -9.9155
    -6.2254  -5.5135  -5.3139  -5.0399  -1.7341  -1.3860  -1.2893  -0.6150
    -0.6044  -0.6007  -0.3280  -0.2231  -0.1729  -0.1355   0.0276   0.1034

          k = 0.0000 0.2434 0.3625 ( 26601 PWs)   bands (ev):

   -24.8147 -24.8121 -10.1581 -10.1284 -10.0835 -10.0788 -10.0046 -10.0011
    -5.9016  -5.4439  -5.2583  -5.1464  -1.5327  -1.5003  -1.2886  -0.8153
    -0.7887  -0.6287  -0.5979  -0.2132  -0.1236  -0.1099   0.0044   0.0509

          k = 0.0000 0.2434-0.7249 ( 26628 PWs)   bands (ev):

   -24.8092 -24.8092 -10.2936 -10.2935 -10.0206 -10.0206 -10.0115 -10.0115
    -5.5971  -5.5971  -5.1165  -5.1164  -1.5502  -1.5496  -1.3107  -1.3101
    -0.5010  -0.5006  -0.4890  -0.4878  -0.1631  -0.1630  -0.0224  -0.0221

          k = 0.0000-0.4867 0.0000 ( 26678 PWs)   bands (ev):

   -24.8177 -24.8177 -10.1244 -10.1244 -10.0596 -10.0596  -9.9297  -9.9297
    -5.8254  -5.8254  -5.2611  -5.2611  -1.4881  -1.4881  -0.8936  -0.8936
    -0.6626  -0.6626  -0.2616  -0.2616  -0.1132  -0.1132  -0.0122  -0.0122

          k = 0.0000-0.4867 0.3625 ( 26632 PWs)   bands (ev):

   -24.8134 -24.8134 -10.1552 -10.1552 -10.0542 -10.0542 -10.0194 -10.0194
    -5.6720  -5.6720  -5.2221  -5.2221  -1.4783  -1.4783  -1.1032  -1.1032
    -0.5954  -0.5954  -0.3336  -0.3336  -0.2138  -0.2138  -0.0143  -0.0143

          k = 0.0000-0.4867-0.7249 ( 26632 PWs)   bands (ev):

   -24.8092 -24.8092 -10.3021 -10.3021 -10.0143 -10.0143 -10.0068 -10.0068
    -5.6904  -5.6904  -5.0179  -5.0179  -1.6252  -1.6252  -1.1207  -1.1207
    -0.5502  -0.5502  -0.4118  -0.4118  -0.3345  -0.3345   0.0098   0.0098

          k = 0.2495 0.0000 0.0000 ( 26624 PWs)   bands (ev):

   -24.8195 -24.8158 -10.1734 -10.1284 -10.0394 -10.0186  -9.9442  -9.9155
    -6.2335  -5.6268  -5.1220  -5.0563  -1.8581  -1.1375  -1.1137  -0.9820
    -0.4946  -0.4662  -0.3921  -0.3586  -0.2570  -0.2463   0.0719   0.1062

          k = 0.2495 0.0000 0.3625 ( 26634 PWs)   bands (ev):

   -24.8147 -24.8121 -10.1508 -10.1365 -10.1034 -10.0626 -10.0149  -9.9926
    -5.8731  -5.3971  -5.2356  -5.2092  -1.6600  -1.4626  -1.2889  -0.8856
    -0.8467  -0.6300  -0.4252  -0.3027  -0.1962  -0.0683   0.0834   0.1097

          k = 0.2495 0.0000-0.7249 ( 26622 PWs)   bands (ev):

   -24.8092 -24.8092 -10.2963 -10.2962 -10.0241 -10.0241 -10.0092 -10.0092
    -5.4355  -5.4352  -5.2632  -5.2630  -1.8597  -1.8593  -1.0947  -1.0943
    -0.5647  -0.5645  -0.3079  -0.3065  -0.1867  -0.1866   0.0248   0.0250

          k = 0.2495 0.2434 0.0000 ( 26640 PWs)   bands (ev):

   -24.8189 -24.8164 -10.1897 -10.1139 -10.0693  -9.9924  -9.9398  -9.9195
    -6.1133  -5.5946  -5.2938  -5.1020  -1.6243  -1.3464  -1.1278  -0.7218
    -0.6309  -0.5967  -0.3688  -0.2197  -0.2153  -0.1337  -0.0864   0.0418

          k = 0.2495 0.2434 0.3625 ( 26642 PWs)   bands (ev):

   -24.8143 -24.8125 -10.1510 -10.1266 -10.1253 -10.0528 -10.0182  -9.9896
    -5.7961  -5.4081  -5.3224  -5.2141  -1.6261  -1.3981  -1.3573  -0.8793
    -0.7140  -0.5674  -0.4775  -0.2889  -0.2100  -0.1056   0.0198   0.0920

          k = 0.2495 0.2434-0.7249 ( 26590 PWs)   bands (ev):

   -24.8091 -24.8091 -10.3014 -10.2858 -10.0357 -10.0153 -10.0110 -10.0103
    -5.5976  -5.4775  -5.2174  -5.0949  -1.8375  -1.7781  -1.1460  -1.0886
    -0.6007  -0.5951  -0.3210  -0.2963  -0.1568  -0.1378  -0.0150   0.0081

          k = 0.2495-0.4867 0.0000 ( 26648 PWs)   bands (ev):

   -24.8176 -24.8176 -10.1714 -10.1714 -10.0141 -10.0141  -9.9295  -9.9295
    -5.8087  -5.8087  -5.2737  -5.2737  -1.4003  -1.4003  -0.9060  -0.9060
    -0.6873  -0.6873  -0.3009  -0.3009  -0.0898  -0.0898  -0.0829  -0.0829

          k = 0.2495-0.4867 0.3625 ( 26630 PWs)   bands (ev):

   -24.8134 -24.8134 -10.1486 -10.1486 -10.0868 -10.0868  -9.9976  -9.9976
    -5.6020  -5.6020  -5.2809  -5.2809  -1.5417  -1.5417  -1.0823  -1.0823
    -0.5824  -0.5824  -0.3131  -0.3131  -0.2069  -0.2069  -0.0001  -0.0001

          k = 0.2495-0.4867-0.7249 ( 26572 PWs)   bands (ev):

   -24.8091 -24.8091 -10.2916 -10.2916 -10.0253 -10.0253 -10.0131 -10.0131
    -5.6142  -5.6142  -5.0746  -5.0746  -1.7451  -1.7451  -1.1850  -1.1850
    -0.5050  -0.5050  -0.3822  -0.3822  -0.1665  -0.1665   0.0056   0.0056

          k =-0.4989 0.0000 0.0000 ( 26634 PWs)   bands (ev):

   -24.8176 -24.8176 -10.1142 -10.1142 -10.0745 -10.0745  -9.9297  -9.9297
    -5.8887  -5.8887  -5.1461  -5.1461  -1.4915  -1.4915  -0.8018  -0.8018
    -0.4765  -0.4765  -0.4560  -0.4560  -0.3552  -0.3552  -0.0195  -0.0195

          k =-0.4989 0.0000 0.3625 ( 26658 PWs)   bands (ev):

   -24.8134 -24.8134 -10.1564 -10.1564 -10.0664 -10.0664 -10.0123 -10.0123
    -5.5905  -5.5905  -5.2691  -5.2691  -1.5799  -1.5799  -1.1257  -1.1257
    -0.6009  -0.6009  -0.4326  -0.4326  -0.0980  -0.0980   0.0706   0.0706

          k =-0.4989 0.0000-0.7249 ( 26560 PWs)   bands (ev):

   -24.8091 -24.8091 -10.3074 -10.3074 -10.0193 -10.0193 -10.0043 -10.0043
    -5.4530  -5.4530  -5.2242  -5.2242  -2.0431  -2.0431  -0.8747  -0.8747
    -0.5795  -0.5795  -0.4099  -0.4099  -0.0261  -0.0261  -0.0023  -0.0023

          k =-0.4989 0.2434 0.0000 ( 26626 PWs)   bands (ev):

   -24.8176 -24.8176 -10.1705 -10.1705 -10.0174 -10.0174  -9.9295  -9.9295
    -5.8454  -5.8454  -5.2113  -5.2113  -1.4098  -1.4098  -0.8098  -0.8098
    -0.6267  -0.6267  -0.4976  -0.4976  -0.1682  -0.1682  -0.0384  -0.0384

          k =-0.4989 0.2434 0.3625 ( 26632 PWs)   bands (ev):

   -24.8134 -24.8134 -10.1493 -10.1493 -10.0902 -10.0902  -9.9967  -9.9967
    -5.5492  -5.5492  -5.3164  -5.3164  -1.5852  -1.5852  -1.1131  -1.1131
    -0.5660  -0.5660  -0.3840  -0.3840  -0.1098  -0.1098   0.0164   0.0164

          k =-0.4989 0.2434-0.7249 ( 26620 PWs)   bands (ev):

   -24.8091 -24.8091 -10.2944 -10.2944 -10.0268 -10.0268 -10.0126 -10.0126
    -5.4877  -5.4877  -5.1855  -5.1855  -1.9617  -1.9617  -1.0490  -1.0490
    -0.5354  -0.5354  -0.3584  -0.3584  -0.0697  -0.0697   0.0463   0.0463

          k =-0.4989-0.4867 0.0000 ( 26640 PWs)   bands (ev):

   -24.8176 -24.8176 -10.1999 -10.1999  -9.9870  -9.9870  -9.9293  -9.9293
    -5.7922  -5.7922  -5.2858  -5.2858  -1.2911  -1.2911  -0.9394  -0.9394
    -0.7103  -0.7103  -0.3172  -0.3172  -0.1773  -0.1773  -0.0681  -0.0681

          k =-0.4989-0.4867 0.3625 ( 26644 PWs)   bands (ev):

   -24.8134 -24.8134 -10.1365 -10.1365 -10.1142 -10.1142  -9.9865  -9.9865
    -5.4741  -5.4741  -5.3972  -5.3972  -1.5699  -1.5699  -1.1636  -1.1636
    -0.4236  -0.4236  -0.3136  -0.3136  -0.1773  -0.1773  -0.0695  -0.0695

          k =-0.4989-0.4867-0.7249 ( 26640 PWs)   bands (ev):

   -24.8091 -24.8091 -10.2800 -10.2800 -10.0400 -10.0400 -10.0167 -10.0167
    -5.5154  -5.5154  -5.1537  -5.1537  -1.8312  -1.8312  -1.2966  -1.2966
    -0.3453  -0.3453  -0.3121  -0.3121  -0.1652  -0.1652   0.0267   0.0267

     highest occupied level (ev):     0.1546

!    total energy              =    -156.46312158 Ry
     estimated scf accuracy    <          7.2E-11 Ry

     The total energy is the sum of the following terms:
     one-electron contribution =     -29.11286675 Ry
     hartree contribution      =      27.67555482 Ry
     xc contribution           =     -48.92562393 Ry
     ewald contribution        =    -106.10018572 Ry

     convergence has been achieved in   7 iterations

     Forces acting on atoms (cartesian axes, Ry/au):

     atom    1 type  2   force =     0.00000000    0.00000000    0.00000309
     atom    2 type  2   force =     0.00000000    0.00000000   -0.00000309
     atom    3 type  1   force =     0.00067585    0.00161929   -0.00000781
     atom    4 type  1   force =    -0.00067585   -0.00161929   -0.00000781
     atom    5 type  1   force =     0.00067585   -0.00161929    0.00000781
     atom    6 type  1   force =    -0.00067585    0.00161929    0.00000781
     atom    7 type  3   force =     0.00061243    0.00087403   -0.00001044
     atom    8 type  3   force =    -0.00061243   -0.00087403   -0.00001044
     atom    9 type  3   force =     0.00061243   -0.00087403    0.00001044
     atom   10 type  3   force =    -0.00061243    0.00087403    0.00001044
     atom   11 type  3   force =     0.00012234    0.00211482    0.00000007
     atom   12 type  3   force =    -0.00012234   -0.00211482    0.00000007
     atom   13 type  3   force =     0.00012234   -0.00211482   -0.00000007
     atom   14 type  3   force =    -0.00012234    0.00211482   -0.00000007
     atom   15 type  3   force =     0.00091553    0.00081377   -0.00068863
     atom   16 type  3   force =    -0.00091553   -0.00081377   -0.00068863
     atom   17 type  3   force =     0.00091553   -0.00081377    0.00068863
     atom   18 type  3   force =    -0.00091553    0.00081377    0.00068863
     atom   19 type  3   force =    -0.00088955   -0.00082073    0.00067889
     atom   20 type  3   force =     0.00088955    0.00082073    0.00067889
     atom   21 type  3   force =    -0.00088955    0.00082073   -0.00067889
     atom   22 type  3   force =     0.00088955   -0.00082073   -0.00067889

     Total force =     0.007101     Total SCF correction =     0.000004


     Computing stress (Cartesian axis) and pressure

          total   stress  (Ry/bohr**3)                   (kbar)     P=      -20.94
  -0.00013101   0.00000000   0.00000000          -19.27        0.00        0.00
   0.00000000  -0.00013378   0.00000000            0.00      -19.68        0.00
   0.00000000   0.00000000  -0.00016215            0.00        0.00      -23.85

     Volume is kept fixed: isostatic pressure set to zero
     Energy error            =      2.8E-04 Ry
     Gradient error          =      2.1E-03 Ry/Bohr
     Cell gradient error     =      2.9E+00 kbar

     number of scf cycles    =   4
     number of bfgs steps    =   3

     enthalpy           old  =    -156.4628381627 Ry
     enthalpy           new  =    -156.4631215754 Ry

     CASE: enthalpy          _new < enthalpy          _old

     new trust radius        =       0.0054892607 bohr
ibrav =      8
 celldm(1) =     13.07983645
 celldm(2) =      1.02495465
 celldm(3) =      0.68748879
Input lattice vectors:
     1.00257363     0.00000000     0.00000000
     0.00000000     1.02759250     0.00000000
     0.00000000     0.00000000     0.68925813
New lattice vectors in INITIAL alat:
     1.00257363     0.00000000     0.00000000
     0.00000000     1.02759250     0.00000000
     0.00000000     0.00000000     0.68925813
New lattice vectors in NEW alat (for information only):
     1.00000000     0.00000000     0.00000000
     0.00000000     1.02495465     0.00000000
     0.00000000     0.00000000     0.68748879
Discrepancy in bohr =     0.000000    0.000000    0.000000
     new conv_thr            =            2.8E-11 Ry

     new unit-cell volume =   1576.80217 a.u.^3 (   233.65797 Ang^3 )
     density =      2.37382 g/cm^3

CELL_PARAMETERS (alat= 13.04626025)
   1.002573626   0.000000000   0.000000000
   0.000000000   1.027592497   0.000000000
   0.000000000   0.000000000   0.689258126

ATOMIC_POSITIONS (crystal)
Ba               0.5000000000        0.5000000000        0.5001029402
Ba               0.0000000000        0.0000000000        0.9998970598
B                0.6105718907        0.2403570934        0.0000586256
B                0.3894281093        0.7596429066        0.0000586256
B                0.1105718907        0.2596429066        0.4999413744
B                0.8894281093        0.7403570934        0.4999413744
H                0.4398374342        0.2909709259        0.0002196827
H                0.5601625658        0.7090290741        0.0002196827
H                0.9398374342        0.2090290741        0.4997803173
H                0.0601625658        0.7909709259        0.4997803173
H                0.7183495616        0.3796374975       -0.0000052057
H                0.2816504384        0.6203625025       -0.0000052057
H                0.2183495616        0.1203625025        0.5000052057
H                0.7816504384        0.8796374975        0.5000052057
H                0.6387844228        0.1454434009        0.7874149356
H                0.3612155772        0.8545565991        0.7874149356
H                0.1387844228        0.3545565991        0.7125850644
H                0.8612155772        0.6454434009        0.7125850644
H                0.3610196870        0.8546002571        0.2126030186
H                0.6389803130        0.1453997429        0.2126030186
H                0.8610196870        0.6453997429        0.2873969814
H                0.1389803130        0.3546002571        0.2873969814



     Writing config-only to output data dir ./pwscf.save/ :
     XML data file
     NEW-OLD atomic charge density approx. for the potential

     total cpu time spent up to now is      947.7 secs

     Self-consistent Calculation

     iteration #  1     ecut=   100.00 Ry     beta= 0.70
     Davidson diagonalization with overlap
     ethr =  1.00E-06,  avg # of iterations =  2.0

     Threshold (ethr) on eigenvalues was too large:
     Diagonalizing with lowered threshold

     Davidson diagonalization with overlap
     ethr =  1.33E-08,  avg # of iterations =  3.1

     total cpu time spent up to now is      983.5 secs

     total energy              =    -156.46320375 Ry
     estimated scf accuracy    <       0.00000886 Ry

     iteration #  2     ecut=   100.00 Ry     beta= 0.70
     Davidson diagonalization with overlap
     ethr =  1.85E-08,  avg # of iterations =  2.0

     total cpu time spent up to now is     1000.6 secs

     total energy              =    -156.46320559 Ry
     estimated scf accuracy    <       0.00000074 Ry

     iteration #  3     ecut=   100.00 Ry     beta= 0.70
     Davidson diagonalization with overlap
     ethr =  1.55E-09,  avg # of iterations =  2.0

     total cpu time spent up to now is     1017.7 secs

     total energy              =    -156.46320571 Ry
     estimated scf accuracy    <       0.00000003 Ry

     iteration #  4     ecut=   100.00 Ry     beta= 0.70
     Davidson diagonalization with overlap
     ethr =  5.43E-11,  avg # of iterations =  4.2

     total cpu time spent up to now is     1037.8 secs

     total energy              =    -156.46320571 Ry
     estimated scf accuracy    <          3.3E-09 Ry

     iteration #  5     ecut=   100.00 Ry     beta= 0.70
     Davidson diagonalization with overlap
     ethr =  6.81E-12,  avg # of iterations =  4.8

     total cpu time spent up to now is     1059.7 secs

     total energy              =    -156.46320572 Ry
     estimated scf accuracy    <          1.1E-10 Ry

     iteration #  6     ecut=   100.00 Ry     beta= 0.70
     Davidson diagonalization with overlap
     ethr =  2.27E-13,  avg # of iterations =  5.8

     total cpu time spent up to now is     1085.8 secs

     End of self-consistent calculation

          k = 0.0000 0.0000 0.0000 ( 26643 PWs)   bands (ev):

   -24.8195 -24.8144 -10.1992 -10.1420 -10.0121  -9.9878  -9.9495  -9.9091
    -6.3841  -5.5808  -5.1050  -4.9451  -2.0267  -1.2321  -1.2200  -0.8902
    -0.5188  -0.5121  -0.4925  -0.3539  -0.2017   0.0972   0.1247   0.1482

          k = 0.0000 0.0000 0.3627 ( 26621 PWs)   bands (ev):

   -24.8145 -24.8108 -10.1325 -10.1273 -10.1082 -10.0952 -10.0001  -9.9875
    -5.9939  -5.3929  -5.2211  -5.1133  -1.6996  -1.4805  -1.0273  -1.0187
    -0.8971  -0.8008  -0.4956  -0.2566  -0.0623  -0.0562   0.0203   0.1388

          k = 0.0000 0.0000-0.7254 ( 26664 PWs)   bands (ev):

   -24.8084 -24.8084 -10.2859 -10.2858 -10.0310 -10.0310 -10.0116 -10.0115
    -5.4118  -5.4113  -5.3121  -5.3117  -1.4599  -1.4594  -1.4444  -1.4431
    -0.5662  -0.5655  -0.5243  -0.5228  -0.0390  -0.0390  -0.0162  -0.0159

          k = 0.0000 0.2433 0.0000 ( 26601 PWs)   bands (ev):

   -24.8187 -24.8151 -10.1785 -10.1230 -10.0429 -10.0100  -9.9435  -9.9149
    -6.2277  -5.5174  -5.3159  -5.0432  -1.7382  -1.3885  -1.2913  -0.6198
    -0.6013  -0.5985  -0.3333  -0.2216  -0.1786  -0.1332   0.0239   0.0999

          k = 0.0000 0.2433 0.3627 ( 26601 PWs)   bands (ev):

   -24.8139 -24.8114 -10.1582 -10.1288 -10.0837 -10.0785 -10.0043 -10.0006
    -5.9029  -5.4459  -5.2614  -5.1502  -1.5345  -1.5020  -1.2905  -0.8150
    -0.7893  -0.6315  -0.5985  -0.2150  -0.1267  -0.1152   0.0025   0.0472

          k = 0.0000 0.2433-0.7254 ( 26628 PWs)   bands (ev):

[...]
        18        H      tau(  18) = (   0.8534060   0.6917979   0.4811952  )
        19        H      tau(  19) = (   0.3357394   0.8505069   0.1476913  )
        20        H      tau(  20) = (   0.6996007   0.1776957   0.1476913  )
        21        H      tau(  21) = (   0.8534094   0.6917969   0.1858329  )
        22        H      tau(  22) = (   0.1819307   0.3364056   0.1858329  )

     number of k points=    27
                       cart. coord. in units 2pi/alat
        k(    1) = (   0.0000000   0.0000000   0.0000000), wk =   0.0312500
        k(    2) = (   0.0000000   0.0000000   0.3747854), wk =   0.0625000
        k(    3) = (   0.0000000   0.0000000  -0.7495707), wk =   0.0312500
        k(    4) = (   0.0000000   0.2431428   0.0000000), wk =   0.0625000
        k(    5) = (   0.0000000   0.2431428   0.3747854), wk =   0.1250000
        k(    6) = (   0.0000000   0.2431428  -0.7495707), wk =   0.0625000
        k(    7) = (   0.0000000  -0.4862855   0.0000000), wk =   0.0312500
        k(    8) = (   0.0000000  -0.4862855   0.3747854), wk =   0.0625000
        k(    9) = (   0.0000000  -0.4862855  -0.7495707), wk =   0.0312500
        k(   10) = (   0.2414666   0.0000000   0.0000000), wk =   0.0625000
        k(   11) = (   0.2414666   0.0000000   0.3747854), wk =   0.1250000
        k(   12) = (   0.2414666   0.0000000  -0.7495707), wk =   0.0625000
        k(   13) = (   0.2414666   0.2431428   0.0000000), wk =   0.1250000
        k(   14) = (   0.2414666   0.2431428   0.3747854), wk =   0.2500000
        k(   15) = (   0.2414666   0.2431428  -0.7495707), wk =   0.1250000
        k(   16) = (   0.2414666  -0.4862855   0.0000000), wk =   0.0625000
        k(   17) = (   0.2414666  -0.4862855   0.3747854), wk =   0.1250000
        k(   18) = (   0.2414666  -0.4862855  -0.7495707), wk =   0.0625000
        k(   19) = (  -0.4829331   0.0000000   0.0000000), wk =   0.0312500
        k(   20) = (  -0.4829331   0.0000000   0.3747854), wk =   0.0625000
        k(   21) = (  -0.4829331   0.0000000  -0.7495707), wk =   0.0312500
        k(   22) = (  -0.4829331   0.2431428   0.0000000), wk =   0.0625000
        k(   23) = (  -0.4829331   0.2431428   0.3747854), wk =   0.1250000
        k(   24) = (  -0.4829331   0.2431428  -0.7495707), wk =   0.0625000
        k(   25) = (  -0.4829331  -0.4862855   0.0000000), wk =   0.0312500
        k(   26) = (  -0.4829331  -0.4862855   0.3747854), wk =   0.0625000
        k(   27) = (  -0.4829331  -0.4862855  -0.7495707), wk =   0.0312500

     Dense  grid:   602427 G-vectors     FFT dimensions: ( 128, 128,  80)

     Smooth grid:   212943 G-vectors     FFT dimensions: (  90,  90,  60)

     Estimated max dynamical RAM per process >      97.60 MB

     Estimated total dynamical RAM >       2.29 GB

     Initial potential from superposition of free atoms

     starting charge      47.9682, renormalised to      48.0000
     Starting wfcs are   42 randomized atomic wfcs

     total cpu time spent up to now is    11876.4 secs

     Self-consistent Calculation

     iteration #  1     ecut=   100.00 Ry     beta= 0.70
     Davidson diagonalization with overlap
     ethr =  1.00E-06,  avg # of iterations = 11.1

     total cpu time spent up to now is    11930.6 secs

     total energy              =    -155.82034991 Ry
     estimated scf accuracy    <       2.31117901 Ry

     iteration #  2     ecut=   100.00 Ry     beta= 0.70
     Davidson diagonalization with overlap
     ethr =  4.81E-03,  avg # of iterations =  2.0

     total cpu time spent up to now is    11947.9 secs

     total energy              =    -156.39104644 Ry
     estimated scf accuracy    <       0.47756009 Ry

     iteration #  3     ecut=   100.00 Ry     beta= 0.70
     Davidson diagonalization with overlap
     ethr =  9.95E-04,  avg # of iterations =  2.0

     total cpu time spent up to now is    11965.3 secs

     total energy              =    -156.46661216 Ry
     estimated scf accuracy    <       0.00572160 Ry

     iteration #  4     ecut=   100.00 Ry     beta= 0.70
     Davidson diagonalization with overlap
     ethr =  1.19E-05,  avg # of iterations =  3.4

     total cpu time spent up to now is    11986.8 secs

     total energy              =    -156.46879499 Ry
     estimated scf accuracy    <       0.00232683 Ry

     iteration #  5     ecut=   100.00 Ry     beta= 0.70
     Davidson diagonalization with overlap
     ethr =  4.85E-06,  avg # of iterations =  3.1

     total cpu time spent up to now is    12004.8 secs

     total energy              =    -156.46945136 Ry
     estimated scf accuracy    <       0.00005848 Ry

     iteration #  6     ecut=   100.00 Ry     beta= 0.70
     Davidson diagonalization with overlap
     ethr =  1.22E-07,  avg # of iterations =  5.9

     total cpu time spent up to now is    12033.0 secs

     total energy              =    -156.46955121 Ry
     estimated scf accuracy    <       0.00001926 Ry

     iteration #  7     ecut=   100.00 Ry     beta= 0.70
     Davidson diagonalization with overlap
     ethr =  4.01E-08,  avg # of iterations =  2.5

     total cpu time spent up to now is    12050.9 secs

     total energy              =    -156.46955588 Ry
     estimated scf accuracy    <       0.00000009 Ry

     iteration #  8     ecut=   100.00 Ry     beta= 0.70
     Davidson diagonalization with overlap
     ethr =  1.89E-10,  avg # of iterations =  7.6

     total cpu time spent up to now is    12086.7 secs

     total energy              =    -156.46955636 Ry
     estimated scf accuracy    <       0.00000002 Ry

     iteration #  9     ecut=   100.00 Ry     beta= 0.70
     Davidson diagonalization with overlap
     ethr =  4.66E-11,  avg # of iterations =  3.1

     total cpu time spent up to now is    12104.3 secs

     total energy              =    -156.46955636 Ry
     estimated scf accuracy    <          8.1E-09 Ry

     iteration # 10     ecut=   100.00 Ry     beta= 0.70
     Davidson diagonalization with overlap
     ethr =  1.69E-11,  avg # of iterations =  2.3

     total cpu time spent up to now is    12121.9 secs

     total energy              =    -156.46955636 Ry
     estimated scf accuracy    <          2.7E-10 Ry

     iteration # 11     ecut=   100.00 Ry     beta= 0.70
     Davidson diagonalization with overlap
     ethr =  5.71E-13,  avg # of iterations =  6.8

     total cpu time spent up to now is    12154.2 secs

     total energy              =    -156.46955636 Ry
     estimated scf accuracy    <          1.8E-10 Ry

     iteration # 12     ecut=   100.00 Ry     beta= 0.70
     Davidson diagonalization with overlap
     ethr =  3.67E-13,  avg # of iterations =  2.0

     total cpu time spent up to now is    12171.6 secs

     total energy              =    -156.46955636 Ry
     estimated scf accuracy    <          1.9E-12 Ry

     iteration # 13     ecut=   100.00 Ry     beta= 0.70
     Davidson diagonalization with overlap
     ethr =  1.00E-13,  avg # of iterations =  2.1

     total cpu time spent up to now is    12186.1 secs

     End of self-consistent calculation

          k = 0.0000 0.0000 0.0000 ( 26607 PWs)   bands (ev):

   -24.6330 -24.6276 -10.1196 -10.0786  -9.8883  -9.8583  -9.7970  -9.7510
    -6.5044  -5.6809  -5.1474  -5.0875  -2.2420  -1.2854  -1.2202  -0.9381
    -0.9149  -0.7166  -0.6612  -0.4721  -0.2219  -0.0028   0.0662   0.0673

          k = 0.0000 0.0000 0.3748 ( 26654 PWs)   bands (ev):

   -24.6253 -24.6214 -10.0590 -10.0416 -10.0309 -10.0022  -9.8695  -9.8499
    -6.0082  -5.3865  -5.3243  -5.2842  -1.8256  -1.7143  -1.4909  -1.0257
    -0.9237  -0.8782  -0.5536  -0.3265  -0.1772  -0.1344  -0.1285  -0.0207

          k = 0.0000 0.0000-0.7496 ( 26584 PWs)   bands (ev):

   -24.6163 -24.6163 -10.2856 -10.2856  -9.8936  -9.8936  -9.8815  -9.8815
    -5.4992  -5.4992  -5.3195  -5.3195  -1.8180  -1.8179  -1.5872  -1.5871
    -0.5880  -0.5880  -0.5442  -0.5440  -0.2285  -0.2284  -0.1076  -0.1075

          k = 0.0000 0.2431 0.0000 ( 26651 PWs)   bands (ev):

   -24.6322 -24.6284 -10.0965 -10.0560  -9.9207  -9.8871  -9.7902  -9.7577
    -6.3524  -5.6884  -5.2978  -5.1560  -2.0037  -1.4808  -1.2809  -0.7210
    -0.6988  -0.6857  -0.6500  -0.4248  -0.2693  -0.2513  -0.0235  -0.0107

          k = 0.0000 0.2431 0.3748 ( 26643 PWs)   bands (ev):

   -24.6247 -24.6220 -10.0822 -10.0590  -9.9887  -9.9830  -9.8768  -9.8666
    -5.9200  -5.4652  -5.3479  -5.3022  -1.7327  -1.7217  -1.5450  -0.9442
    -0.8857  -0.7182  -0.6492  -0.3296  -0.2315  -0.1476  -0.1242  -0.1164

          k = 0.0000 0.2431-0.7496 ( 26604 PWs)   bands (ev):

   -24.6163 -24.6163 -10.2932 -10.2932  -9.8849  -9.8849  -9.8793  -9.8793
    -5.6628  -5.6628  -5.1467  -5.1467  -1.9594  -1.9594  -1.4142  -1.4142
    -0.5650  -0.5649  -0.4791  -0.4790  -0.2613  -0.2612  -0.1880  -0.1879

          k = 0.0000-0.4863 0.0000 ( 26598 PWs)   bands (ev):

   -24.6303 -24.6303 -10.0447 -10.0447  -9.9433  -9.9433  -9.7739  -9.7739
    -5.9786  -5.9786  -5.3016  -5.3016  -1.6980  -1.6980  -0.9305  -0.9305
    -0.7160  -0.7160  -0.4000  -0.4000  -0.3310  -0.3310  -0.1562  -0.1562

          k = 0.0000-0.4863 0.3748 ( 26646 PWs)   bands (ev):

   -24.6233 -24.6233 -10.0829 -10.0829  -9.9563  -9.9563  -9.8905  -9.8905
    -5.6987  -5.6987  -5.3346  -5.3346  -1.7367  -1.7367  -1.2490  -1.2490
    -0.7000  -0.7000  -0.4222  -0.4222  -0.3166  -0.3166  -0.1217  -0.1217

          k = 0.0000-0.4863-0.7496 ( 26680 PWs)   bands (ev):

   -24.6163 -24.6163 -10.3005 -10.3005  -9.8828  -9.8828  -9.8707  -9.8707
    -5.7547  -5.7547  -5.0454  -5.0454  -2.0544  -2.0544  -1.2439  -1.2439
    -0.5456  -0.5456  -0.4646  -0.4646  -0.4101  -0.4101  -0.1392  -0.1392

          k = 0.2415 0.0000 0.0000 ( 26633 PWs)   bands (ev):

   -24.6322 -24.6284 -10.0918 -10.0589  -9.9175  -9.8933  -9.7902  -9.7577
    -6.3607  -5.7386  -5.1904  -5.1801  -2.0466  -1.2842  -1.1798  -1.0357
    -0.6750  -0.6497  -0.6284  -0.4795  -0.2895  -0.2597  -0.0698  -0.0045

          k = 0.2415 0.0000 0.3748 ( 26656 PWs)   bands (ev):

   -24.6247 -24.6220 -10.0786 -10.0609 -10.0064  -9.9688  -9.8846  -9.8591
    -5.9052  -5.4041  -5.3733  -5.3396  -1.7970  -1.6316  -1.5872  -0.9579
    -0.8735  -0.7560  -0.6018  -0.3851  -0.2814  -0.1425  -0.0929  -0.0665

          k = 0.2415 0.0000-0.7496 ( 26636 PWs)   bands (ev):

   -24.6163 -24.6163 -10.2948 -10.2948  -9.8900  -9.8900  -9.8744  -9.8744
    -5.5964  -5.5963  -5.2072  -5.2071  -2.0845  -2.0844  -1.3052  -1.3051
    -0.5431  -0.5430  -0.4917  -0.4916  -0.2921  -0.2920  -0.1307  -0.1306

          k = 0.2415 0.2431 0.0000 ( 26631 PWs)   bands (ev):

   -24.6317 -24.6290 -10.1126 -10.0382  -9.9492  -9.8660  -9.7854  -9.7624
    -6.2611  -5.7816  -5.3018  -5.1684  -1.8747  -1.4678  -1.2088  -0.8108
    -0.7400  -0.6803  -0.5077  -0.4120  -0.4047  -0.2654  -0.1657  -0.0056

          k = 0.2415 0.2431 0.3748 ( 26626 PWs)   bands (ev):

   -24.6243 -24.6224 -10.0774 -10.0570 -10.0260  -9.9555  -9.8903  -9.8545
    -5.8353  -5.4764  -5.3918  -5.3357  -1.7806  -1.6686  -1.5365  -1.0372
    -0.7909  -0.7026  -0.5672  -0.3458  -0.3241  -0.1916  -0.1101  -0.0546

          k = 0.2415 0.2431-0.7496 ( 26638 PWs)   bands (ev):

   -24.6163 -24.6163 -10.2995 -10.2867  -9.8949  -9.8872  -9.8807  -9.8699
    -5.7086  -5.5515  -5.2507  -5.0862  -2.1374  -1.9681  -1.4940  -1.2681
    -0.6068  -0.5398  -0.3956  -0.3601  -0.3120  -0.2661  -0.1979  -0.0954

          k = 0.2415-0.4863 0.0000 ( 26588 PWs)   bands (ev):

   -24.6303 -24.6303 -10.0911 -10.0911  -9.8941  -9.8941  -9.7738  -9.7738
    -6.0090  -6.0090  -5.2678  -5.2678  -1.6367  -1.6367  -0.9929  -0.9929
    -0.7499  -0.7499  -0.4314  -0.4314  -0.2936  -0.2936  -0.1385  -0.1385

          k = 0.2415-0.4863 0.3748 ( 26610 PWs)   bands (ev):

   -24.6233 -24.6233 -10.0724 -10.0724  -9.9923  -9.9923  -9.8668  -9.8668
    -5.6623  -5.6623  -5.3656  -5.3656  -1.7484  -1.7484  -1.2932  -1.2932
    -0.6962  -0.6962  -0.4326  -0.4326  -0.2124  -0.2124  -0.1403  -0.1403

          k = 0.2415-0.4863-0.7496 ( 26640 PWs)   bands (ev):

   -24.6163 -24.6163 -10.2917 -10.2917  -9.8858  -9.8858  -9.8822  -9.8822
    -5.6824  -5.6824  -5.1109  -5.1109  -2.0454  -2.0454  -1.4337  -1.4337
    -0.5322  -0.5322  -0.3837  -0.3837  -0.2654  -0.2654  -0.1339  -0.1339

          k =-0.4829 0.0000 0.0000 ( 26614 PWs)   bands (ev):

   -24.6303 -24.6303 -10.0381 -10.0381  -9.9510  -9.9510  -9.7739  -9.7739
    -6.0191  -6.0191  -5.2380  -5.2380  -1.6622  -1.6622  -0.8294  -0.8294
    -0.6315  -0.6315  -0.6089  -0.6089  -0.4263  -0.4263  -0.1748  -0.1748

          k =-0.4829 0.0000 0.3748 ( 26608 PWs)   bands (ev):

   -24.6233 -24.6233 -10.0826 -10.0826  -9.9638  -9.9638  -9.8856  -9.8856
    -5.6536  -5.6536  -5.3671  -5.3671  -1.7417  -1.7417  -1.2741  -1.2741
    -0.6578  -0.6578  -0.5491  -0.5491  -0.2402  -0.2402  -0.1102  -0.1102

          k =-0.4829 0.0000-0.7496 ( 26632 PWs)   bands (ev):

   -24.6163 -24.6163 -10.3035 -10.3035  -9.8883  -9.8883  -9.8657  -9.8657
    -5.6557  -5.6557  -5.1318  -5.1318  -2.2336  -2.2336  -1.0970  -1.0970
    -0.5709  -0.5709  -0.5136  -0.5136  -0.2338  -0.2338  -0.1691  -0.1691

          k =-0.4829 0.2431 0.0000 ( 26606 PWs)   bands (ev):

   -24.6303 -24.6303 -10.0897 -10.0897  -9.8962  -9.8962  -9.7738  -9.7738
    -6.0281  -6.0281  -5.2370  -5.2370  -1.6196  -1.6196  -0.9395  -0.9395
    -0.7212  -0.7212  -0.5575  -0.5575  -0.3277  -0.3277  -0.1277  -0.1277

          k =-0.4829 0.2431 0.3748 ( 26610 PWs)   bands (ev):

   -24.6233 -24.6233 -10.0720 -10.0720  -9.9951  -9.9951  -9.8656  -9.8656
    -5.6363  -5.6363  -5.3852  -5.3852  -1.7488  -1.7488  -1.3176  -1.3176
    -0.6424  -0.6424  -0.4999  -0.4999  -0.2017  -0.2017  -0.1272  -0.1272

          k =-0.4829 0.2431-0.7496 ( 26648 PWs)   bands (ev):

   -24.6163 -24.6163 -10.2933 -10.2933  -9.8911  -9.8911  -9.8772  -9.8772
    -5.6238  -5.6238  -5.1632  -5.1632  -2.1581  -2.1581  -1.3304  -1.3304
    -0.5202  -0.5202  -0.4572  -0.4572  -0.2263  -0.2263  -0.0807  -0.0807

          k =-0.4829-0.4863 0.0000 ( 26572 PWs)   bands (ev):

   -24.6303 -24.6303 -10.1211 -10.1211  -9.8615  -9.8615  -9.7737  -9.7737
    -6.0372  -6.0372  -5.2359  -5.2359  -1.5627  -1.5627  -1.0691  -1.0691
    -0.7790  -0.7790  -0.4525  -0.4525  -0.2610  -0.2610  -0.1306  -0.1306

          k =-0.4829-0.4863 0.3748 ( 26624 PWs)   bands (ev):

   -24.6233 -24.6233 -10.0479 -10.0479 -10.0335 -10.0335  -9.8519  -9.8519
    -5.6164  -5.6164  -5.4058  -5.4058  -1.7515  -1.7515  -1.3664  -1.3664
    -0.6444  -0.6444  -0.3590  -0.3590  -0.2808  -0.2808  -0.0996  -0.0996

          k =-0.4829-0.4863-0.7496 ( 26656 PWs)   bands (ev):

   -24.6163 -24.6163 -10.2824 -10.2824  -9.8972  -9.8972  -9.8860  -9.8860
    -5.5872  -5.5872  -5.1992  -5.1992  -2.0295  -2.0295  -1.5879  -1.5879
    -0.4987  -0.4987  -0.3141  -0.3141  -0.2495  -0.2495  -0.0504  -0.0504

     highest occupied level (ev):     0.0673

!    total energy              =    -156.46955636 Ry
     estimated scf accuracy    <          1.6E-13 Ry

     The total energy is the sum of the following terms:
     one-electron contribution =     -34.38043332 Ry
     hartree contribution      =      30.33111367 Ry
     xc contribution           =     -49.05989932 Ry
     ewald contribution        =    -103.36033739 Ry

     convergence has been achieved in  13 iterations

     Forces acting on atoms (cartesian axes, Ry/au):

     atom    1 type  2   force =     0.00000000    0.00000000    0.00000237
     atom    2 type  2   force =     0.00000000    0.00000000   -0.00000237
     atom    3 type  1   force =    -0.00000168    0.00000500   -0.00000518
     atom    4 type  1   force =     0.00000168   -0.00000500   -0.00000518
     atom    5 type  1   force =    -0.00000168   -0.00000500    0.00000518
     atom    6 type  1   force =     0.00000168    0.00000500    0.00000518
     atom    7 type  3   force =     0.00000222   -0.00000183    0.00000653
     atom    8 type  3   force =    -0.00000222    0.00000183    0.00000653
     atom    9 type  3   force =     0.00000222    0.00000183   -0.00000653
     atom   10 type  3   force =    -0.00000222   -0.00000183   -0.00000653
     atom   11 type  3   force =    -0.00000056   -0.00000139    0.00000083
     atom   12 type  3   force =     0.00000056    0.00000139    0.00000083
     atom   13 type  3   force =    -0.00000056    0.00000139   -0.00000083
     atom   14 type  3   force =     0.00000056   -0.00000139   -0.00000083
     atom   15 type  3   force =     0.00000250   -0.00000312   -0.00000413
     atom   16 type  3   force =    -0.00000250    0.00000312   -0.00000413
     atom   17 type  3   force =     0.00000250    0.00000312    0.00000413
     atom   18 type  3   force =    -0.00000250   -0.00000312    0.00000413
     atom   19 type  3   force =     0.00000487   -0.00000309   -0.00000233
     atom   20 type  3   force =    -0.00000487    0.00000309   -0.00000233
     atom   21 type  3   force =     0.00000487    0.00000309    0.00000233
     atom   22 type  3   force =    -0.00000487   -0.00000309    0.00000233

     Total force =     0.000027     Total SCF correction =     0.000000


     Computing stress (Cartesian axis) and pressure

          total   stress  (Ry/bohr**3)                   (kbar)     P=       -6.77
  -0.00004600   0.00000000   0.00000000           -6.77        0.00        0.00
   0.00000000  -0.00004603   0.00000000            0.00       -6.77        0.00
   0.00000000   0.00000000  -0.00004608            0.00        0.00       -6.78


     Writing all to output data dir ./pwscf.save/ :
     XML data file, charge density, pseudopotentials, collected wavefunctions

     init_run     :     21.17s CPU     23.31s WALL (       2 calls)
     electrons    :  10014.28s CPU  10087.53s WALL (      63 calls)
     update_pot   :     15.90s CPU     17.48s WALL (      61 calls)
     forces       :    231.80s CPU    233.34s WALL (      63 calls)
     stress       :   1834.83s CPU   1838.90s WALL (      63 calls)

     Called by init_run:
     wfcinit      :     16.73s CPU     16.87s WALL (       2 calls)
     potinit      :      0.74s CPU      1.26s WALL (       2 calls)
     hinit0       :      1.77s CPU      3.18s WALL (       2 calls)

     Called by electrons:
     c_bands      :   8830.05s CPU   8884.19s WALL (     496 calls)
     sum_band     :   1015.51s CPU   1026.42s WALL (     496 calls)
     v_of_rho     :     73.24s CPU     76.45s WALL (     524 calls)
     newd         :     97.60s CPU     99.54s WALL (     524 calls)
     mix_rho      :      8.19s CPU      8.95s WALL (     496 calls)

     Called by c_bands:
     init_us_2    :    196.20s CPU    198.45s WALL (   30240 calls)
     cegterg      :   7923.46s CPU   7974.88s WALL (   13392 calls)

     Called by *egterg:
     cdiaghg      :    102.12s CPU    102.78s WALL (   58050 calls)
     h_psi        :   5585.43s CPU   5627.19s WALL (   60696 calls)
     s_psi        :   1035.34s CPU   1039.34s WALL (   60696 calls)
     g_psi        :     18.56s CPU     18.66s WALL (   47250 calls)

     Called by h_psi:
     h_psi:calbec :    958.04s CPU    962.52s WALL (   60696 calls)
     vloc_psi     :   3571.80s CPU   3605.41s WALL (   60696 calls)
     add_vuspsi   :   1038.98s CPU   1042.94s WALL (   60696 calls)

     General routines
     calbec       :   1788.90s CPU   1795.73s WALL (   82593 calls)
     fft          :     54.39s CPU     61.24s WALL (    8357 calls)
     ffts         :      3.00s CPU      3.69s WALL (    1020 calls)
     fftw         :   3375.39s CPU   3405.64s WALL ( 2409582 calls)
     interpolate  :      5.68s CPU      6.64s WALL (     524 calls)

     Parallel routines

     PWSCF        :      3h22m CPU      3h23m WALL


   This run was terminated on:  18: 6: 9   6Aug2024            

=------------------------------------------------------------------------------=
   JOB DONE.
=------------------------------------------------------------------------------=
