
     Program PHONON v.7.3.1 starts on 12Jul2024 at 12:20:25 

     This program is part of the open-source Quantum ESPRESSO suite
     for quantum simulation of materials; please cite
         "P. Giannozzi et al., J. Phys.:Condens. Matter 21 395502 (2009);
         "P. Giannozzi et al., J. Phys.:Condens. Matter 29 465901 (2017);
         "P. Giannozzi et al., J. Chem. Phys. 152 154105 (2020);
          URL http://www.quantum-espresso.org", 
     in publications or presentations arising from this work. More details at
     http://www.quantum-espresso.org/quote

     Parallel version (MPI), running on    24 processors

     MPI processes distributed on     1 nodes
     94118 MiB available memory on the printing compute node when the environment starts

     Waiting for input...
     Reading input from standard input

     Reading xml data from directory:

     ./pwscf.save/

     R & G space division:  proc/nbgrp/npool/nimage =      24
     Subspace diagonalization in iterative solution of the eigenvalue problem:
     a serial algorithm will be used


     IMPORTANT: XC functional enforced from input :
     Exchange-correlation= PBESOL
                           (   1   4  10   8   0   0   0)
     Any further DFT definition will be discarded
     Please, verify this is what you really want


     Parallelization info
     --------------------
     sticks:   dense  smooth     PW     G-vecs:    dense   smooth      PW
     Min         419     210     56                21915     7750    1089
     Max         420     211     58                21918     7753    1091
     Sum       10077    5043   1367               525991   186049   26171

     Using Slab Decomposition

     Reading collected, re-writing distributed wavefunctions in ./


     Dynamical matrices for ( 3, 3, 3)  uniform grid of q-points
     (   8 q-points):
       N         xq(1)         xq(2)         xq(3) 
       1   0.000000000   0.000000000   0.000000000
       2   0.000000000   0.000000000   0.473566411
       3   0.000000000   0.321683215   0.000000000
       4   0.000000000   0.321683215   0.473566411
       5   0.333333333   0.000000000   0.000000000
       6   0.333333333   0.000000000   0.473566411
       7   0.333333333   0.321683215   0.000000000
       8   0.333333333   0.321683215   0.473566411

     Number and degeneracy of irreps per q-point
       N         xq(1)         xq(2)         xq(3)   N irreps
       1   0.000000000   0.000000000   0.000000000      66
     No degeneracy
       2   0.000000000   0.000000000   0.473566411      66
     No degeneracy
Eigenvectors exchange needed   29   62
       3   0.000000000   0.321683215   0.000000000      65
        1   1   1   1   1   1   1   1   1   1   1   1   1   1   1   1   1   1
   1   1   1   1   1   1   1   1   1   1   2   1   1   1   1   1   1   1
   1   1   1   1   1   1   1   1   1   1   1   1   1   1   1   1   1   1
   1   1   1   1   1   1   1   1   1   1   1
       4   0.000000000   0.321683215   0.473566411      66
     No degeneracy
       5   0.333333333   0.000000000   0.000000000      66
     No degeneracy
       6   0.333333333   0.000000000   0.473566411      66
     No degeneracy
       7   0.333333333   0.321683215   0.000000000      66
     No degeneracy
       8   0.333333333   0.321683215   0.473566411      66
     No degeneracy

     Saving dvscf to file. Distribute only q points, not irreducible representations.

     Calculation of q =    0.0000000   0.0000000   0.0000000

                                                                                

     bravais-lattice index     =            8
     lattice parameter (alat)  =      12.3594  a.u.
     unit-cell volume          =    1377.0263 (a.u.)^3
     number of atoms/cell      =           22
     number of atomic types    =            3
     kinetic-energy cut-off    =     100.0000  Ry
     charge density cut-off    =     800.0000  Ry
     convergence threshold     =      1.0E-14
     beta                      =       0.7000
     number of iterations used =            4
     Exchange-correlation= PBESOL
                           (   1   4  10   8   0   0   0)


     celldm(1)=   12.35942  celldm(2)=    1.03622  celldm(3)=    0.70388
     celldm(4)=    0.00000  celldm(5)=    0.00000  celldm(6)=    0.00000

     crystal axes: (cart. coord. in units of alat)
               a(1) = (  1.0000  0.0000  0.0000 )  
               a(2) = (  0.0000  1.0362  0.0000 )  
               a(3) = (  0.0000  0.0000  0.7039 )  

     reciprocal axes: (cart. coord. in units 2 pi/alat)
               b(1) = (  1.0000  0.0000  0.0000 )  
               b(2) = (  0.0000  0.9650  0.0000 )  
               b(3) = (  0.0000  0.0000  1.4207 )  


     Atoms inside the unit cell: 

     Cartesian axes

     site n.  atom      mass           positions (alat units)
        1  Ba    137.3270   tau(    1) = (    0.50000    0.51811    0.35194  )
        2  Ba    137.3270   tau(    2) = (    0.00000    0.00000    0.70388  )
        3  B      10.8110   tau(    3) = (    0.60533    0.24461   -0.00000  )
        4  B      10.8110   tau(    4) = (    0.39467    0.79161   -0.00000  )
        5  B      10.8110   tau(    5) = (    0.10533    0.27350    0.35194  )
        6  B      10.8110   tau(    6) = (    0.89467    0.76271    0.35194  )
        7  H       1.0079   tau(    7) = (    0.42691    0.30388   -0.00001  )
        8  H       1.0079   tau(    8) = (    0.57309    0.73233   -0.00001  )
        9  H       1.0079   tau(    9) = (    0.92691    0.21422    0.35195  )
       10  H       1.0079   tau(   10) = (    0.07309    0.82199    0.35195  )
       11  H       1.0079   tau(   11) = (    0.72281    0.39321    0.00001  )
       12  H       1.0079   tau(   12) = (    0.27719    0.64300    0.00001  )
       13  H       1.0079   tau(   13) = (    0.22281    0.12490    0.35193  )
       14  H       1.0079   tau(   14) = (    0.77719    0.91132    0.35193  )
       15  H       1.0079   tau(   15) = (    0.63300    0.14246    0.54880  )
       16  H       1.0079   tau(   16) = (    0.36700    0.89376    0.54880  )
       17  H       1.0079   tau(   17) = (    0.13300    0.37565    0.50702  )
       18  H       1.0079   tau(   18) = (    0.86700    0.66057    0.50702  )
       19  H       1.0079   tau(   19) = (    0.36702    0.89375    0.15508  )
       20  H       1.0079   tau(   20) = (    0.63298    0.14247    0.15508  )
       21  H       1.0079   tau(   21) = (    0.86702    0.66057    0.19686  )
       22  H       1.0079   tau(   22) = (    0.13298    0.37564    0.19686  )

     Computing dynamical matrix for 
                    q = (   0.0000000   0.0000000   0.0000000 )

      5 Sym.Ops. (with q -> -q+G )


     G cutoff = 3095.4677  (  21918 G-vectors)     FFT grid: (120,120, 80)
     G cutoff = 1547.7339  (   7752 G-vectors)  smooth grid: ( 80, 90, 60)
     number of k points=    27

     PseudoPot. # 1 for B  read from file:
     /home/mehlhorn/pseudos/b_pbesol_v1.4.uspp.F.UPF
     MD5 check sum: 369b69bef2c3aeed4453bd8b804fd6a8
     Pseudo is Ultrasoft + core correction, Zval =  3.0
     Generated by new atomic code, or converted to UPF format
     Using radial grid of  781 points,  4 beta functions with: 
                l(1) =   0
                l(2) =   0
                l(3) =   1
                l(4) =   1
     Q(r) pseudized with  8 coefficients,  rinner =    1.100   1.100   1.100


     PseudoPot. # 2 for Ba read from file:
     /home/mehlhorn/pseudos/Ba.nc.z_10.oncvpsp4.dojo.v4-sp.upf
     MD5 check sum: c10ed334bb677c0554edec7181ce9143
     Pseudo is Norm-conserving + core correction, Zval = 10.0
     Generated using ONCVPSP code by D. R. Hamann
     Using radial grid of 1938 points,  8 beta functions with: 
                l(1) =   0
                l(2) =   0
                l(3) =   1
                l(4) =   1
                l(5) =   2
                l(6) =   2
                l(7) =   3
                l(8) =   3

     PseudoPot. # 3 for H  read from file:
     /home/mehlhorn/pseudos/H_ONCV_PBEsol-1.0.upf
     MD5 check sum: 398ef8f67c0a7342c05c87c5e19ea467
     Pseudo is Norm-conserving, Zval =  1.0
     Generated using ONCVPSP code by D. R. Hamann
     Using radial grid of 1180 points,  2 beta functions with: 
                l(1) =   0
                l(2) =   0

     Mode symmetry, D_2  (222)  point group:


     Electric field:
     Dielectric constant
     Born effective charges in two ways 


     Atomic displacements:
     There are   66 irreducible representations

     Representation     1      1 modes -  To be done

     Representation     2      1 modes -  To be done

     Representation     3      1 modes -  To be done

     Representation     4      1 modes -  To be done

     Representation     5      1 modes -  To be done

     Representation     6      1 modes -  To be done

     Representation     7      1 modes -  To be done

     Representation     8      1 modes -  To be done

     Representation     9      1 modes -  To be done

     Representation    10      1 modes -  To be done

     Representation    11      1 modes -  To be done

     Representation    12      1 modes -  To be done

     Representation    13      1 modes -  To be done

     Representation    14      1 modes -  To be done

     Representation    15      1 modes -  To be done

     Representation    16      1 modes -  To be done

     Representation    17      1 modes -  To be done

     Representation    18      1 modes -  To be done

     Representation    19      1 modes -  To be done

     Representation    20      1 modes -  To be done

     Representation    21      1 modes -  To be done

     Representation    22      1 modes -  To be done

     Representation    23      1 modes -  To be done

     Representation    24      1 modes -  To be done

     Representation    25      1 modes -  To be done

     Representation    26      1 modes -  To be done

     Representation    27      1 modes -  To be done

     Representation    28      1 modes -  To be done

     Representation    29      1 modes -  To be done

     Representation    30      1 modes -  To be done

     Representation    31      1 modes -  To be done

     Representation    32      1 modes -  To be done

     Representation    33      1 modes -  To be done

     Representation    34      1 modes -  To be done

     Representation    35      1 modes -  To be done

     Representation    36      1 modes -  To be done

     Representation    37      1 modes -  To be done

     Representation    38      1 modes -  To be done

     Representation    39      1 modes -  To be done

     Representation    40      1 modes -  To be done

     Representation    41      1 modes -  To be done

     Representation    42      1 modes -  To be done

     Representation    43      1 modes -  To be done

     Representation    44      1 modes -  To be done

     Representation    45      1 modes -  To be done

     Representation    46      1 modes -  To be done

     Representation    47      1 modes -  To be done

     Representation    48      1 modes -  To be done

     Representation    49      1 modes -  To be done

     Representation    50      1 modes -  To be done

     Representation    51      1 modes -  To be done

     Representation    52      1 modes -  To be done

     Representation    53      1 modes -  To be done

     Representation    54      1 modes -  To be done

     Representation    55      1 modes -  To be done

     Representation    56      1 modes -  To be done

     Representation    57      1 modes -  To be done

     Representation    58      1 modes -  To be done

     Representation    59      1 modes -  To be done

     Representation    60      1 modes -  To be done

     Representation    61      1 modes -  To be done

     Representation    62      1 modes -  To be done

     Representation    63      1 modes -  To be done

     Representation    64      1 modes -  To be done

     Representation    65      1 modes -  To be done

     Representation    66      1 modes -  To be done



     Alpha used in Ewald sum =   2.8000
     PHONON       :   3m11.29s CPU   3m15.81s WALL


     Electric Fields Calculation

      iter #   1 total cpu time :   769.0 secs   av.it.:   7.6
      thresh= 1.000E-02 alpha_mix =  0.700 |ddv_scf|^2 =  5.771E-09

      iter #   2 total cpu time :  1022.8 secs   av.it.:  16.9
      thresh= 7.597E-06 alpha_mix =  0.700 |ddv_scf|^2 =  9.400E-10

      iter #   3 total cpu time :  1263.2 secs   av.it.:  16.0
      thresh= 3.066E-06 alpha_mix =  0.700 |ddv_scf|^2 =  7.215E-11

      iter #   4 total cpu time :  1493.1 secs   av.it.:  15.7
      thresh= 8.494E-07 alpha_mix =  0.700 |ddv_scf|^2 =  9.391E-12

      iter #   5 total cpu time :  1729.2 secs   av.it.:  15.7
      thresh= 3.064E-07 alpha_mix =  0.700 |ddv_scf|^2 =  9.241E-13

      iter #   6 total cpu time :  1966.5 secs   av.it.:  15.7
      thresh= 9.613E-08 alpha_mix =  0.700 |ddv_scf|^2 =  2.353E-14

      iter #   7 total cpu time :  2205.6 secs   av.it.:  16.0
      thresh= 1.534E-08 alpha_mix =  0.700 |ddv_scf|^2 =  3.271E-15

     End of electric fields calculation

          Dielectric constant in cartesian axis 

          (       3.210933980       0.000000000       0.000000000 )
          (       0.000000000       3.273821036       0.000000000 )
          (       0.000000000       0.000000000       3.394831025 )

          Effective charges (d Force / dE) in cartesian axis without acoustic sum rule applied (asr)

           atom    1  Ba    Mean Z*:        2.66933
      Ex  (        2.51900       -0.03869        0.00000 )
      Ey  (        0.28792        2.53597        0.00000 )
      Ez  (        0.00000        0.00000        2.95303 )
           atom    2  Ba    Mean Z*:        2.66933
      Ex  (        2.51900        0.03869        0.00000 )
      Ey  (       -0.28792        2.53597        0.00000 )
      Ez  (        0.00000        0.00000        2.95303 )
           atom    3  B     Mean Z*:       -0.13539
      Ex  (       -0.15161        0.03244       -0.00002 )
      Ey  (        0.17474       -0.05125        0.00005 )
      Ez  (        0.00001        0.00004       -0.20331 )
           atom    4  B     Mean Z*:       -0.13539
      Ex  (       -0.15161        0.03244        0.00002 )
      Ey  (        0.17474       -0.05125       -0.00005 )
      Ez  (       -0.00001       -0.00004       -0.20331 )
           atom    5  B     Mean Z*:       -0.13539
      Ex  (       -0.15161       -0.03244        0.00002 )
      Ey  (       -0.17474       -0.05125        0.00005 )
      Ez  (       -0.00001        0.00004       -0.20331 )
           atom    6  B     Mean Z*:       -0.13539
      Ex  (       -0.15161       -0.03244       -0.00002 )
      Ey  (       -0.17474       -0.05125       -0.00005 )
      Ez  (        0.00001       -0.00004       -0.20331 )
           atom    7  H     Mean Z*:       -0.30758
      Ex  (       -0.42227        0.13179       -0.00000 )
      Ey  (        0.13973       -0.25481       -0.00000 )
      Ez  (       -0.00002        0.00000       -0.24566 )
           atom    8  H     Mean Z*:       -0.30758
      Ex  (       -0.42227        0.13179        0.00000 )
      Ey  (        0.13973       -0.25481        0.00000 )
      Ez  (        0.00002       -0.00000       -0.24566 )
           atom    9  H     Mean Z*:       -0.30758
      Ex  (       -0.42227       -0.13179        0.00000 )
      Ey  (       -0.13973       -0.25481       -0.00000 )
      Ez  (        0.00002        0.00000       -0.24566 )
           atom   10  H     Mean Z*:       -0.30758
      Ex  (       -0.42227       -0.13179       -0.00000 )
      Ey  (       -0.13973       -0.25481        0.00000 )
      Ez  (       -0.00002       -0.00000       -0.24566 )
           atom   11  H     Mean Z*:       -0.31729
      Ex  (       -0.27973       -0.04642        0.00001 )
      Ey  (       -0.11319       -0.42774       -0.00005 )
      Ez  (        0.00001       -0.00003       -0.24439 )
           atom   12  H     Mean Z*:       -0.31729
      Ex  (       -0.27973       -0.04642       -0.00001 )
      Ey  (       -0.11319       -0.42774        0.00005 )
      Ez  (       -0.00001        0.00003       -0.24439 )
           atom   13  H     Mean Z*:       -0.31729
      Ex  (       -0.27973        0.04642       -0.00001 )
      Ey  (        0.11319       -0.42774       -0.00005 )
      Ez  (       -0.00001       -0.00003       -0.24439 )
           atom   14  H     Mean Z*:       -0.31729
      Ex  (       -0.27973        0.04642        0.00001 )
      Ey  (        0.11319       -0.42774        0.00005 )
      Ez  (        0.00001        0.00003       -0.24439 )
           atom   15  H     Mean Z*:       -0.28701
      Ex  (       -0.20311        0.14410        0.05696 )
      Ey  (        0.09480       -0.26657       -0.08995 )
      Ez  (        0.01728       -0.10902       -0.39135 )
           atom   16  H     Mean Z*:       -0.28701
      Ex  (       -0.20311        0.14410       -0.05696 )
      Ey  (        0.09480       -0.26657        0.08995 )
      Ez  (       -0.01728        0.10902       -0.39135 )
           atom   17  H     Mean Z*:       -0.28701
      Ex  (       -0.20311       -0.14410       -0.05696 )
      Ey  (       -0.09480       -0.26657       -0.08995 )
      Ez  (       -0.01728       -0.10902       -0.39135 )
           atom   18  H     Mean Z*:       -0.28701
      Ex  (       -0.20311       -0.14410        0.05696 )
      Ey  (       -0.09480       -0.26657        0.08995 )
      Ez  (        0.01728        0.10902       -0.39135 )
           atom   19  H     Mean Z*:       -0.28703
      Ex  (       -0.20308        0.14408        0.05693 )
      Ey  (        0.09478       -0.26658       -0.08996 )
      Ez  (        0.01726       -0.10901       -0.39142 )
           atom   20  H     Mean Z*:       -0.28703
      Ex  (       -0.20308        0.14408       -0.05693 )
      Ey  (        0.09478       -0.26658        0.08996 )
      Ez  (       -0.01726        0.10901       -0.39142 )
           atom   21  H     Mean Z*:       -0.28703
      Ex  (       -0.20308       -0.14408       -0.05693 )
      Ey  (       -0.09478       -0.26658       -0.08996 )
      Ez  (       -0.01726       -0.10901       -0.39142 )
           atom   22  H     Mean Z*:       -0.28703
      Ex  (       -0.20308       -0.14408        0.05693 )
      Ey  (       -0.09478       -0.26658        0.08996 )
      Ez  (        0.01726        0.10901       -0.39142 )

          Effective charges Sum: Mean:        0.00147
             -0.00124        0.00000        0.00000
              0.00000        0.00412        0.00000
              0.00000        0.00000        0.00151

          Effective charges (d Force / dE) in cartesian axis with asr applied: 
           atom    1  Ba    Mean Z*:        2.66926
      E*x (        2.51905       -0.03869       -0.00000 )
      E*y (        0.28792        2.53578        0.00000 )
      E*z (       -0.00000        0.00000        2.95296 )
           atom    2  Ba    Mean Z*:        2.66926
      E*x (        2.51905        0.03869       -0.00000 )
      E*y (       -0.28792        2.53578        0.00000 )
      E*z (       -0.00000        0.00000        2.95296 )
           atom    3  B     Mean Z*:       -0.13546
      E*x (       -0.15156        0.03244       -0.00002 )
      E*y (        0.17474       -0.05144        0.00005 )
      E*z (        0.00001        0.00004       -0.20337 )
           atom    4  B     Mean Z*:       -0.13546
      E*x (       -0.15156        0.03244        0.00002 )
      E*y (        0.17474       -0.05144       -0.00005 )
      E*z (       -0.00001       -0.00004       -0.20337 )
           atom    5  B     Mean Z*:       -0.13546
      E*x (       -0.15156       -0.03244        0.00002 )
      E*y (       -0.17474       -0.05144        0.00005 )
      E*z (       -0.00001        0.00004       -0.20337 )
           atom    6  B     Mean Z*:       -0.13546
      E*x (       -0.15156       -0.03244       -0.00002 )
      E*y (       -0.17474       -0.05144       -0.00005 )
      E*z (        0.00001       -0.00004       -0.20337 )
           atom    7  H     Mean Z*:       -0.30765
      E*x (       -0.42222        0.13179       -0.00000 )
      E*y (        0.13973       -0.25499       -0.00000 )
      E*z (       -0.00002        0.00000       -0.24573 )
           atom    8  H     Mean Z*:       -0.30765
      E*x (       -0.42222        0.13179        0.00000 )
      E*y (        0.13973       -0.25499        0.00000 )
      E*z (        0.00002       -0.00000       -0.24573 )
           atom    9  H     Mean Z*:       -0.30765
      E*x (       -0.42222       -0.13179        0.00000 )
      E*y (       -0.13973       -0.25499       -0.00000 )
      E*z (        0.00002        0.00000       -0.24573 )
           atom   10  H     Mean Z*:       -0.30765
      E*x (       -0.42222       -0.13179       -0.00000 )
      E*y (       -0.13973       -0.25499        0.00000 )
      E*z (       -0.00002       -0.00000       -0.24573 )
           atom   11  H     Mean Z*:       -0.31735
      E*x (       -0.27967       -0.04642        0.00001 )
      E*y (       -0.11319       -0.42793       -0.00005 )
      E*z (        0.00001       -0.00003       -0.24446 )
           atom   12  H     Mean Z*:       -0.31735
      E*x (       -0.27967       -0.04642       -0.00001 )
      E*y (       -0.11319       -0.42793        0.00005 )
      E*z (       -0.00001        0.00003       -0.24446 )
           atom   13  H     Mean Z*:       -0.31735
      E*x (       -0.27967        0.04642       -0.00001 )
      E*y (        0.11319       -0.42793       -0.00005 )
      E*z (       -0.00001       -0.00003       -0.24446 )
           atom   14  H     Mean Z*:       -0.31735
      E*x (       -0.27967        0.04642        0.00001 )
      E*y (        0.11319       -0.42793        0.00005 )
      E*z (        0.00001        0.00003       -0.24446 )
           atom   15  H     Mean Z*:       -0.28708
      E*x (       -0.20306        0.14410        0.05696 )
      E*y (        0.09480       -0.26676       -0.08995 )
      E*z (        0.01728       -0.10902       -0.39142 )
           atom   16  H     Mean Z*:       -0.28708
      E*x (       -0.20306        0.14410       -0.05696 )
      E*y (        0.09480       -0.26676        0.08995 )
      E*z (       -0.01728        0.10902       -0.39142 )
           atom   17  H     Mean Z*:       -0.28708
      E*x (       -0.20306       -0.14410       -0.05696 )
      E*y (       -0.09480       -0.26676       -0.08995 )
      E*z (       -0.01728       -0.10902       -0.39142 )
           atom   18  H     Mean Z*:       -0.28708
      E*x (       -0.20306       -0.14410        0.05696 )
      E*y (       -0.09480       -0.26676        0.08995 )
      E*z (        0.01728        0.10902       -0.39142 )
           atom   19  H     Mean Z*:       -0.28709
      E*x (       -0.20302        0.14408        0.05693 )
      E*y (        0.09478       -0.26677       -0.08996 )
      E*z (        0.01726       -0.10901       -0.39149 )
           atom   20  H     Mean Z*:       -0.28709
      E*x (       -0.20302        0.14408       -0.05693 )
      E*y (        0.09478       -0.26677        0.08996 )
      E*z (       -0.01726        0.10901       -0.39149 )
           atom   21  H     Mean Z*:       -0.28709
      E*x (       -0.20302       -0.14408       -0.05693 )
      E*y (       -0.09478       -0.26677       -0.08996 )
      E*z (       -0.01726       -0.10901       -0.39149 )
           atom   22  H     Mean Z*:       -0.28709
      E*x (       -0.20302       -0.14408        0.05693 )
      E*y (       -0.09478       -0.26677        0.08996 )
      E*z (        0.01726        0.10901       -0.39149 )


     Representation #   1 mode #   1

     Self-consistent Calculation

      iter #   1 total cpu time :  4550.6 secs   av.it.:   3.0
      thresh= 1.000E-02 alpha_mix =  0.700 |ddv_scf|^2 =  1.891E-09

      iter #   2 total cpu time :  4630.4 secs   av.it.:  15.4
      thresh= 4.348E-06 alpha_mix =  0.700 |ddv_scf|^2 =  4.268E-10

      iter #   3 total cpu time :  4708.3 secs   av.it.:  15.0
      thresh= 2.066E-06 alpha_mix =  0.700 |ddv_scf|^2 =  2.682E-12

      iter #   4 total cpu time :  4788.2 secs   av.it.:  15.4
      thresh= 1.638E-07 alpha_mix =  0.700 |ddv_scf|^2 =  4.920E-14

      iter #   5 total cpu time :  4868.8 secs   av.it.:  15.8
      thresh= 2.218E-08 alpha_mix =  0.700 |ddv_scf|^2 =  1.914E-15

     End of self-consistent calculation

     Convergence has been achieved 


     Representation #   2 mode #   2

     Self-consistent Calculation

      iter #   1 total cpu time :  4928.1 secs   av.it.:   3.0
      thresh= 1.000E-02 alpha_mix =  0.700 |ddv_scf|^2 =  1.469E-09

      iter #   2 total cpu time :  5005.9 secs   av.it.:  15.9
      thresh= 3.832E-06 alpha_mix =  0.700 |ddv_scf|^2 =  3.791E-10

      iter #   3 total cpu time :  5085.8 secs   av.it.:  15.1
      thresh= 1.947E-06 alpha_mix =  0.700 |ddv_scf|^2 =  3.128E-12

      iter #   4 total cpu time :  5167.4 secs   av.it.:  15.9
      thresh= 1.769E-07 alpha_mix =  0.700 |ddv_scf|^2 =  1.195E-13

      iter #   5 total cpu time :  5248.1 secs   av.it.:  15.7
      thresh= 3.458E-08 alpha_mix =  0.700 |ddv_scf|^2 =  5.243E-15

     End of self-consistent calculation

     Convergence has been achieved 


     Representation #   3 mode #   3

     Self-consistent Calculation

      iter #   1 total cpu time :  5307.4 secs   av.it.:   3.0
      thresh= 1.000E-02 alpha_mix =  0.700 |ddv_scf|^2 =  6.038E-10

      iter #   2 total cpu time :  5389.2 secs   av.it.:  15.9
      thresh= 2.457E-06 alpha_mix =  0.700 |ddv_scf|^2 =  5.150E-11

      iter #   3 total cpu time :  5471.1 secs   av.it.:  15.9
      thresh= 7.176E-07 alpha_mix =  0.700 |ddv_scf|^2 =  6.178E-12

      iter #   4 total cpu time :  5551.5 secs   av.it.:  15.6
      thresh= 2.486E-07 alpha_mix =  0.700 |ddv_scf|^2 =  9.635E-14

      iter #   5 total cpu time :  5632.0 secs   av.it.:  15.5
      thresh= 3.104E-08 alpha_mix =  0.700 |ddv_scf|^2 =  3.212E-15

     End of self-consistent calculation

     Convergence has been achieved 


     Representation #   4 mode #   4

     Self-consistent Calculation

      iter #   1 total cpu time :  5697.5 secs   av.it.:   5.0
      thresh= 1.000E-02 alpha_mix =  0.700 |ddv_scf|^2 =  1.230E-08

      iter #   2 total cpu time :  5778.7 secs   av.it.:  15.8
      thresh= 1.109E-05 alpha_mix =  0.700 |ddv_scf|^2 =  2.684E-09

      iter #   3 total cpu time :  5856.4 secs   av.it.:  15.0
      thresh= 5.181E-06 alpha_mix =  0.700 |ddv_scf|^2 =  2.075E-11

      iter #   4 total cpu time :  5936.0 secs   av.it.:  15.6
      thresh= 4.555E-07 alpha_mix =  0.700 |ddv_scf|^2 =  1.408E-12

      iter #   5 total cpu time :  6015.3 secs   av.it.:  15.5
      thresh= 1.187E-07 alpha_mix =  0.700 |ddv_scf|^2 =  1.939E-14

      iter #   6 total cpu time :  6095.1 secs   av.it.:  15.8
      thresh= 1.393E-08 alpha_mix =  0.700 |ddv_scf|^2 =  2.113E-16

     End of self-consistent calculation

     Convergence has been achieved 


     Representation #   5 mode #   5

     Self-consistent Calculation

      iter #   1 total cpu time :  6184.9 secs   av.it.:   6.5
      thresh= 1.000E-02 alpha_mix =  0.700 |ddv_scf|^2 =  6.247E-08

      iter #   2 total cpu time :  6263.0 secs   av.it.:  15.3
      thresh= 2.499E-05 alpha_mix =  0.700 |ddv_scf|^2 =  1.780E-08

      iter #   3 total cpu time :  6340.1 secs   av.it.:  14.6
      thresh= 1.334E-05 alpha_mix =  0.700 |ddv_scf|^2 =  3.299E-11

      iter #   4 total cpu time :  6418.8 secs   av.it.:  15.1
      thresh= 5.744E-07 alpha_mix =  0.700 |ddv_scf|^2 =  1.192E-12

      iter #   5 total cpu time :  6494.6 secs   av.it.:  14.7
      thresh= 1.092E-07 alpha_mix =  0.700 |ddv_scf|^2 =  1.103E-14

      iter #   6 total cpu time :  6572.0 secs   av.it.:  14.7
      thresh= 1.050E-08 alpha_mix =  0.700 |ddv_scf|^2 =  2.129E-16

     End of self-consistent calculation

     Convergence has been achieved 


     Representation #   6 mode #   6

     Self-consistent Calculation

      iter #   1 total cpu time :  6636.9 secs   av.it.:   3.1
      thresh= 1.000E-02 alpha_mix =  0.700 |ddv_scf|^2 =  1.732E-09

      iter #   2 total cpu time :  6718.0 secs   av.it.:  15.9
      thresh= 4.161E-06 alpha_mix =  0.700 |ddv_scf|^2 =  4.653E-10

      iter #   3 total cpu time :  6796.5 secs   av.it.:  15.3
      thresh= 2.157E-06 alpha_mix =  0.700 |ddv_scf|^2 =  4.253E-12

      iter #   4 total cpu time :  6874.1 secs   av.it.:  15.5
      thresh= 2.062E-07 alpha_mix =  0.700 |ddv_scf|^2 =  2.157E-13

      iter #   5 total cpu time :  6951.5 secs   av.it.:  15.3
      thresh= 4.645E-08 alpha_mix =  0.700 |ddv_scf|^2 =  4.629E-15

     End of self-consistent calculation

     Convergence has been achieved 


     Representation #   7 mode #   7

     Self-consistent Calculation

      iter #   1 total cpu time :  7009.6 secs   av.it.:   3.0
      thresh= 1.000E-02 alpha_mix =  0.700 |ddv_scf|^2 =  1.410E-09

      iter #   2 total cpu time :  7089.7 secs   av.it.:  15.2
      thresh= 3.755E-06 alpha_mix =  0.700 |ddv_scf|^2 =  1.310E-10

      iter #   3 total cpu time :  7169.5 secs   av.it.:  15.1
      thresh= 1.144E-06 alpha_mix =  0.700 |ddv_scf|^2 =  1.231E-12

      iter #   4 total cpu time :  7250.7 secs   av.it.:  15.8
      thresh= 1.109E-07 alpha_mix =  0.700 |ddv_scf|^2 =  7.285E-14

      iter #   5 total cpu time :  7331.8 secs   av.it.:  15.8
      thresh= 2.699E-08 alpha_mix =  0.700 |ddv_scf|^2 =  5.920E-15

     End of self-consistent calculation

     Convergence has been achieved 


     Representation #   8 mode #   8

     Self-consistent Calculation

      iter #   1 total cpu time :  7390.3 secs   av.it.:   3.0
      thresh= 1.000E-02 alpha_mix =  0.700 |ddv_scf|^2 =  9.141E-10

      iter #   2 total cpu time :  7470.6 secs   av.it.:  15.5
      thresh= 3.023E-06 alpha_mix =  0.700 |ddv_scf|^2 =  7.867E-11

      iter #   3 total cpu time :  7551.1 secs   av.it.:  15.7
      thresh= 8.869E-07 alpha_mix =  0.700 |ddv_scf|^2 =  2.186E-12

      iter #   4 total cpu time :  7632.4 secs   av.it.:  15.9
      thresh= 1.478E-07 alpha_mix =  0.700 |ddv_scf|^2 =  1.759E-13

      iter #   5 total cpu time :  7713.0 secs   av.it.:  15.6
      thresh= 4.194E-08 alpha_mix =  0.700 |ddv_scf|^2 =  5.789E-15

     End of self-consistent calculation

     Convergence has been achieved 


     Representation #   9 mode #   9

     Self-consistent Calculation

      iter #   1 total cpu time :  7778.7 secs   av.it.:   4.9
      thresh= 1.000E-02 alpha_mix =  0.700 |ddv_scf|^2 =  8.134E-09

      iter #   2 total cpu time :  7861.2 secs   av.it.:  16.0
      thresh= 9.019E-06 alpha_mix =  0.700 |ddv_scf|^2 =  1.266E-09

      iter #   3 total cpu time :  7941.1 secs   av.it.:  15.2
      thresh= 3.558E-06 alpha_mix =  0.700 |ddv_scf|^2 =  2.373E-11

      iter #   4 total cpu time :  8022.5 secs   av.it.:  15.7
      thresh= 4.872E-07 alpha_mix =  0.700 |ddv_scf|^2 =  1.642E-12

      iter #   5 total cpu time :  8103.8 secs   av.it.:  15.8
      thresh= 1.281E-07 alpha_mix =  0.700 |ddv_scf|^2 =  3.270E-14

      iter #   6 total cpu time :  8185.3 secs   av.it.:  15.8
      thresh= 1.808E-08 alpha_mix =  0.700 |ddv_scf|^2 =  2.346E-16

     End of self-consistent calculation

     Convergence has been achieved 


     Representation #  10 mode #  10

     Self-consistent Calculation

      iter #   1 total cpu time :  8261.3 secs   av.it.:   3.0
      thresh= 1.000E-02 alpha_mix =  0.700 |ddv_scf|^2 =  1.095E-09

      iter #   2 total cpu time :  8343.3 secs   av.it.:  15.9
      thresh= 3.309E-06 alpha_mix =  0.700 |ddv_scf|^2 =  1.122E-10

      iter #   3 total cpu time :  8425.5 secs   av.it.:  15.9
      thresh= 1.059E-06 alpha_mix =  0.700 |ddv_scf|^2 =  4.059E-12

      iter #   4 total cpu time :  8507.4 secs   av.it.:  15.9
      thresh= 2.015E-07 alpha_mix =  0.700 |ddv_scf|^2 =  1.681E-13

      iter #   5 total cpu time :  8586.5 secs   av.it.:  15.8
      thresh= 4.100E-08 alpha_mix =  0.700 |ddv_scf|^2 =  6.348E-15

     End of self-consistent calculation

     Convergence has been achieved 


     Representation #  11 mode #  11

     Self-consistent Calculation

      iter #   1 total cpu time :  8645.3 secs   av.it.:   3.0
      thresh= 1.000E-02 alpha_mix =  0.700 |ddv_scf|^2 =  9.214E-10

      iter #   2 total cpu time :  8728.0 secs   av.it.:  15.9
      thresh= 3.035E-06 alpha_mix =  0.700 |ddv_scf|^2 =  1.684E-10

      iter #   3 total cpu time :  8807.9 secs   av.it.:  15.6
      thresh= 1.298E-06 alpha_mix =  0.700 |ddv_scf|^2 =  6.403E-12

      iter #   4 total cpu time :  8885.9 secs   av.it.:  15.6
      thresh= 2.530E-07 alpha_mix =  0.700 |ddv_scf|^2 =  1.053E-13

      iter #   5 total cpu time :  8965.7 secs   av.it.:  15.3
      thresh= 3.245E-08 alpha_mix =  0.700 |ddv_scf|^2 =  4.091E-15

     End of self-consistent calculation

     Convergence has been achieved 


     Representation #  12 mode #  12

     Self-consistent Calculation

      iter #   1 total cpu time :  9025.1 secs   av.it.:   3.0
      thresh= 1.000E-02 alpha_mix =  0.700 |ddv_scf|^2 =  8.280E-10

      iter #   2 total cpu time :  9106.6 secs   av.it.:  15.9
      thresh= 2.878E-06 alpha_mix =  0.700 |ddv_scf|^2 =  1.196E-10

      iter #   3 total cpu time :  9186.5 secs   av.it.:  15.9
      thresh= 1.094E-06 alpha_mix =  0.700 |ddv_scf|^2 =  4.261E-12

      iter #   4 total cpu time :  9264.9 secs   av.it.:  15.9
      thresh= 2.064E-07 alpha_mix =  0.700 |ddv_scf|^2 =  2.823E-13

      iter #   5 total cpu time :  9344.1 secs   av.it.:  15.4
      thresh= 5.313E-08 alpha_mix =  0.700 |ddv_scf|^2 =  5.363E-15

     End of self-consistent calculation

     Convergence has been achieved 


     Representation #  13 mode #  13

     Self-consistent Calculation

      iter #   1 total cpu time :  9404.8 secs   av.it.:   3.5
      thresh= 1.000E-02 alpha_mix =  0.700 |ddv_scf|^2 =  1.784E-09

      iter #   2 total cpu time :  9487.1 secs   av.it.:  15.9
      thresh= 4.224E-06 alpha_mix =  0.700 |ddv_scf|^2 =  5.608E-10

      iter #   3 total cpu time :  9566.7 secs   av.it.:  15.0
      thresh= 2.368E-06 alpha_mix =  0.700 |ddv_scf|^2 =  1.763E-12

      iter #   4 total cpu time :  9647.3 secs   av.it.:  15.7
      thresh= 1.328E-07 alpha_mix =  0.700 |ddv_scf|^2 =  5.395E-14

      iter #   5 total cpu time :  9725.7 secs   av.it.:  15.6
      thresh= 2.323E-08 alpha_mix =  0.700 |ddv_scf|^2 =  2.460E-15

     End of self-consistent calculation

     Convergence has been achieved 


     Representation #  14 mode #  14

     Self-consistent Calculation

      iter #   1 total cpu time :  9789.4 secs   av.it.:   4.1
      thresh= 1.000E-02 alpha_mix =  0.700 |ddv_scf|^2 =  1.059E-08

      iter #   2 total cpu time :  9869.2 secs   av.it.:  15.3
      thresh= 1.029E-05 alpha_mix =  0.700 |ddv_scf|^2 =  1.410E-09

      iter #   3 total cpu time :  9947.4 secs   av.it.:  15.0
      thresh= 3.755E-06 alpha_mix =  0.700 |ddv_scf|^2 =  1.122E-11

      iter #   4 total cpu time : 10028.4 secs   av.it.:  15.7
      thresh= 3.350E-07 alpha_mix =  0.700 |ddv_scf|^2 =  1.571E-12

      iter #   5 total cpu time : 10107.7 secs   av.it.:  15.6
      thresh= 1.254E-07 alpha_mix =  0.700 |ddv_scf|^2 =  7.623E-14

      iter #   6 total cpu time : 10185.9 secs   av.it.:  15.3
      thresh= 2.761E-08 alpha_mix =  0.700 |ddv_scf|^2 =  1.667E-16

     End of self-consistent calculation

     Convergence has been achieved 


     Representation #  15 mode #  15

     Self-consistent Calculation

      iter #   1 total cpu time : 10262.1 secs   av.it.:   3.0
      thresh= 1.000E-02 alpha_mix =  0.700 |ddv_scf|^2 =  1.693E-09

      iter #   2 total cpu time : 10342.7 secs   av.it.:  15.9
      thresh= 4.114E-06 alpha_mix =  0.700 |ddv_scf|^2 =  3.373E-10

      iter #   3 total cpu time : 10422.5 secs   av.it.:  15.5
      thresh= 1.837E-06 alpha_mix =  0.700 |ddv_scf|^2 =  3.684E-12

      iter #   4 total cpu time : 10502.3 secs   av.it.:  15.8
      thresh= 1.919E-07 alpha_mix =  0.700 |ddv_scf|^2 =  1.360E-13

      iter #   5 total cpu time : 10581.0 secs   av.it.:  15.8
      thresh= 3.688E-08 alpha_mix =  0.700 |ddv_scf|^2 =  4.688E-15

     End of self-consistent calculation

     Convergence has been achieved 


     Representation #  16 mode #  16

     Self-consistent Calculation

      iter #   1 total cpu time : 10640.6 secs   av.it.:   3.0
      thresh= 1.000E-02 alpha_mix =  0.700 |ddv_scf|^2 =  1.699E-09

      iter #   2 total cpu time : 10722.6 secs   av.it.:  15.9
      thresh= 4.122E-06 alpha_mix =  0.700 |ddv_scf|^2 =  5.430E-10

      iter #   3 total cpu time : 10801.9 secs   av.it.:  15.0
      thresh= 2.330E-06 alpha_mix =  0.700 |ddv_scf|^2 =  1.770E-12

      iter #   4 total cpu time : 10883.7 secs   av.it.:  15.9
      thresh= 1.331E-07 alpha_mix =  0.700 |ddv_scf|^2 =  4.464E-14

      iter #   5 total cpu time : 10964.4 secs   av.it.:  15.6
      thresh= 2.113E-08 alpha_mix =  0.700 |ddv_scf|^2 =  2.880E-15

     End of self-consistent calculation

     Convergence has been achieved 


     Representation #  17 mode #  17

     Self-consistent Calculation

      iter #   1 total cpu time : 11031.9 secs   av.it.:   5.0
      thresh= 1.000E-02 alpha_mix =  0.700 |ddv_scf|^2 =  1.352E-08

      iter #   2 total cpu time : 11113.4 secs   av.it.:  15.8
      thresh= 1.163E-05 alpha_mix =  0.700 |ddv_scf|^2 =  5.452E-09

      iter #   3 total cpu time : 11191.3 secs   av.it.:  14.9
      thresh= 7.383E-06 alpha_mix =  0.700 |ddv_scf|^2 =  1.108E-10

      iter #   4 total cpu time : 11270.5 secs   av.it.:  15.0
      thresh= 1.052E-06 alpha_mix =  0.700 |ddv_scf|^2 =  7.141E-12

      iter #   5 total cpu time : 11350.1 secs   av.it.:  15.0
      thresh= 2.672E-07 alpha_mix =  0.700 |ddv_scf|^2 =  5.624E-13

      iter #   6 total cpu time : 11429.7 secs   av.it.:  15.0
      thresh= 7.499E-08 alpha_mix =  0.700 |ddv_scf|^2 =  2.281E-14

      iter #   7 total cpu time : 11510.7 secs   av.it.:  15.8
      thresh= 1.510E-08 alpha_mix =  0.700 |ddv_scf|^2 =  4.109E-15

     End of self-consistent calculation

     Convergence has been achieved 


     Representation #  18 mode #  18

     Self-consistent Calculation

      iter #   1 total cpu time : 11587.9 secs   av.it.:   3.1
      thresh= 1.000E-02 alpha_mix =  0.700 |ddv_scf|^2 =  3.989E-09

      iter #   2 total cpu time : 11668.6 secs   av.it.:  15.5
      thresh= 6.316E-06 alpha_mix =  0.700 |ddv_scf|^2 =  2.408E-09

      iter #   3 total cpu time : 11745.4 secs   av.it.:  14.8
      thresh= 4.907E-06 alpha_mix =  0.700 |ddv_scf|^2 =  6.037E-12

      iter #   4 total cpu time : 11826.2 secs   av.it.:  15.3
      thresh= 2.457E-07 alpha_mix =  0.700 |ddv_scf|^2 =  1.300E-12

      iter #   5 total cpu time : 11902.8 secs   av.it.:  14.8
      thresh= 1.140E-07 alpha_mix =  0.700 |ddv_scf|^2 =  8.090E-14

      iter #   6 total cpu time : 11981.5 secs   av.it.:  15.0
      thresh= 2.844E-08 alpha_mix =  0.700 |ddv_scf|^2 =  3.315E-15

     End of self-consistent calculation

     Convergence has been achieved 


     Representation #  19 mode #  19

     Self-consistent Calculation

      iter #   1 total cpu time : 12041.0 secs   av.it.:   3.0
      thresh= 1.000E-02 alpha_mix =  0.700 |ddv_scf|^2 =  1.037E-09

      iter #   2 total cpu time : 12120.9 secs   av.it.:  15.9
      thresh= 3.220E-06 alpha_mix =  0.700 |ddv_scf|^2 =  2.296E-10

      iter #   3 total cpu time : 12200.2 secs   av.it.:  15.5
      thresh= 1.515E-06 alpha_mix =  0.700 |ddv_scf|^2 =  1.250E-11

      iter #   4 total cpu time : 12280.3 secs   av.it.:  15.0
      thresh= 3.536E-07 alpha_mix =  0.700 |ddv_scf|^2 =  5.764E-13

      iter #   5 total cpu time : 12360.7 secs   av.it.:  15.5
      thresh= 7.592E-08 alpha_mix =  0.700 |ddv_scf|^2 =  1.103E-14

      iter #   6 total cpu time : 12439.5 secs   av.it.:  15.9
      thresh= 1.050E-08 alpha_mix =  0.700 |ddv_scf|^2 =  1.860E-15

     End of self-consistent calculation

     Convergence has been achieved 


     Representation #  20 mode #  20

     Self-consistent Calculation

      iter #   1 total cpu time : 12497.9 secs   av.it.:   3.9
      thresh= 1.000E-02 alpha_mix =  0.700 |ddv_scf|^2 =  7.030E-09

      iter #   2 total cpu time : 12574.3 secs   av.it.:  15.2
      thresh= 8.384E-06 alpha_mix =  0.700 |ddv_scf|^2 =  4.717E-09

      iter #   3 total cpu time : 12650.1 secs   av.it.:  14.6
      thresh= 6.868E-06 alpha_mix =  0.700 |ddv_scf|^2 =  1.480E-11

      iter #   4 total cpu time : 12727.5 secs   av.it.:  14.9
      thresh= 3.848E-07 alpha_mix =  0.700 |ddv_scf|^2 =  1.135E-12

      iter #   5 total cpu time : 12804.5 secs   av.it.:  15.1
      thresh= 1.065E-07 alpha_mix =  0.700 |ddv_scf|^2 =  1.125E-13

      iter #   6 total cpu time : 12880.4 secs   av.it.:  14.9
      thresh= 3.354E-08 alpha_mix =  0.700 |ddv_scf|^2 =  7.388E-15

     End of self-consistent calculation

     Convergence has been achieved 


     Representation #  21 mode #  21

     Self-consistent Calculation

      iter #   1 total cpu time : 12939.8 secs   av.it.:   3.0
      thresh= 1.000E-02 alpha_mix =  0.700 |ddv_scf|^2 =  6.467E-09

      iter #   2 total cpu time : 13016.1 secs   av.it.:  15.3
      thresh= 8.042E-06 alpha_mix =  0.700 |ddv_scf|^2 =  4.493E-09

      iter #   3 total cpu time : 13088.4 secs   av.it.:  14.7
      thresh= 6.703E-06 alpha_mix =  0.700 |ddv_scf|^2 =  5.820E-12

      iter #   4 total cpu time : 13168.2 secs   av.it.:  15.8
      thresh= 2.412E-07 alpha_mix =  0.700 |ddv_scf|^2 =  1.314E-12

      iter #   5 total cpu time : 13246.6 secs   av.it.:  15.2
      thresh= 1.146E-07 alpha_mix =  0.700 |ddv_scf|^2 =  7.704E-14

      iter #   6 total cpu time : 13325.3 secs   av.it.:  15.2
      thresh= 2.776E-08 alpha_mix =  0.700 |ddv_scf|^2 =  2.861E-15

     End of self-consistent calculation

     Convergence has been achieved 


     Representation #  22 mode #  22

     Self-consistent Calculation

      iter #   1 total cpu time : 13397.9 secs   av.it.:   6.4
      thresh= 1.000E-02 alpha_mix =  0.700 |ddv_scf|^2 =  4.021E-08

      iter #   2 total cpu time : 13476.3 secs   av.it.:  15.3
      thresh= 2.005E-05 alpha_mix =  0.700 |ddv_scf|^2 =  6.339E-09

      iter #   3 total cpu time : 13553.4 secs   av.it.:  14.6
      thresh= 7.962E-06 alpha_mix =  0.700 |ddv_scf|^2 =  3.071E-11

      iter #   4 total cpu time : 13631.1 secs   av.it.:  14.7
      thresh= 5.541E-07 alpha_mix =  0.700 |ddv_scf|^2 =  2.104E-13

      iter #   5 total cpu time : 13710.1 secs   av.it.:  15.4
      thresh= 4.587E-08 alpha_mix =  0.700 |ddv_scf|^2 =  8.008E-15

     End of self-consistent calculation

     Convergence has been achieved 


     Representation #  23 mode #  23

     Self-consistent Calculation

      iter #   1 total cpu time : 13774.7 secs   av.it.:   3.0
      thresh= 1.000E-02 alpha_mix =  0.700 |ddv_scf|^2 =  4.200E-09

      iter #   2 total cpu time : 13850.9 secs   av.it.:  15.0
      thresh= 6.481E-06 alpha_mix =  0.700 |ddv_scf|^2 =  2.130E-09

      iter #   3 total cpu time : 13923.6 secs   av.it.:  14.4
      thresh= 4.615E-06 alpha_mix =  0.700 |ddv_scf|^2 =  2.037E-11

      iter #   4 total cpu time : 13999.4 secs   av.it.:  15.0
      thresh= 4.513E-07 alpha_mix =  0.700 |ddv_scf|^2 =  1.488E-12

      iter #   5 total cpu time : 14076.9 secs   av.it.:  14.9
      thresh= 1.220E-07 alpha_mix =  0.700 |ddv_scf|^2 =  3.095E-14

      iter #   6 total cpu time : 14158.1 secs   av.it.:  15.6
      thresh= 1.759E-08 alpha_mix =  0.700 |ddv_scf|^2 =  5.819E-15

     End of self-consistent calculation

     Convergence has been achieved 


     Representation #  24 mode #  24

     Self-consistent Calculation

      iter #   1 total cpu time : 14216.8 secs   av.it.:   3.0
      thresh= 1.000E-02 alpha_mix =  0.700 |ddv_scf|^2 =  7.160E-10

      iter #   2 total cpu time : 14297.4 secs   av.it.:  15.7
      thresh= 2.676E-06 alpha_mix =  0.700 |ddv_scf|^2 =  9.735E-11

      iter #   3 total cpu time : 14376.0 secs   av.it.:  15.4
      thresh= 9.867E-07 alpha_mix =  0.700 |ddv_scf|^2 =  1.064E-11

      iter #   4 total cpu time : 14451.8 secs   av.it.:  14.9
      thresh= 3.262E-07 alpha_mix =  0.700 |ddv_scf|^2 =  7.454E-13

      iter #   5 total cpu time : 14529.2 secs   av.it.:  15.0
      thresh= 8.634E-08 alpha_mix =  0.700 |ddv_scf|^2 =  1.314E-14

      iter #   6 total cpu time : 14609.6 secs   av.it.:  15.3
      thresh= 1.146E-08 alpha_mix =  0.700 |ddv_scf|^2 =  1.708E-15

     End of self-consistent calculation

     Convergence has been achieved 


     Representation #  25 mode #  25

     Self-consistent Calculation

      iter #   1 total cpu time : 14669.9 secs   av.it.:   3.2
      thresh= 1.000E-02 alpha_mix =  0.700 |ddv_scf|^2 =  5.323E-09

      iter #   2 total cpu time : 14750.6 secs   av.it.:  15.6
      thresh= 7.296E-06 alpha_mix =  0.700 |ddv_scf|^2 =  3.076E-09

      iter #   3 total cpu time : 14826.2 secs   av.it.:  14.8
      thresh= 5.546E-06 alpha_mix =  0.700 |ddv_scf|^2 =  2.018E-11

      iter #   4 total cpu time : 14903.9 secs   av.it.:  15.0
      thresh= 4.492E-07 alpha_mix =  0.700 |ddv_scf|^2 =  1.302E-12

      iter #   5 total cpu time : 14983.9 secs   av.it.:  15.3
      thresh= 1.141E-07 alpha_mix =  0.700 |ddv_scf|^2 =  8.444E-14

      iter #   6 total cpu time : 15063.2 secs   av.it.:  15.0
      thresh= 2.906E-08 alpha_mix =  0.700 |ddv_scf|^2 =  7.716E-15

     End of self-consistent calculation

     Convergence has been achieved 


     Representation #  26 mode #  26

     Self-consistent Calculation

      iter #   1 total cpu time : 15122.7 secs   av.it.:   3.0
      thresh= 1.000E-02 alpha_mix =  0.700 |ddv_scf|^2 =  4.186E-09

      iter #   2 total cpu time : 15201.5 secs   av.it.:  15.0
      thresh= 6.470E-06 alpha_mix =  0.700 |ddv_scf|^2 =  1.442E-09

      iter #   3 total cpu time : 15277.6 secs   av.it.:  14.5
      thresh= 3.797E-06 alpha_mix =  0.700 |ddv_scf|^2 =  1.723E-11

      iter #   4 total cpu time : 15356.3 secs   av.it.:  14.9
      thresh= 4.151E-07 alpha_mix =  0.700 |ddv_scf|^2 =  1.985E-12

      iter #   5 total cpu time : 15430.7 secs   av.it.:  14.9
      thresh= 1.409E-07 alpha_mix =  0.700 |ddv_scf|^2 =  2.082E-14

      iter #   6 total cpu time : 15506.2 secs   av.it.:  15.4
      thresh= 1.443E-08 alpha_mix =  0.700 |ddv_scf|^2 =  4.482E-15

     End of self-consistent calculation

     Convergence has been achieved 


     Representation #  27 mode #  27

     Self-consistent Calculation

      iter #   1 total cpu time : 15572.4 secs   av.it.:   5.0
      thresh= 1.000E-02 alpha_mix =  0.700 |ddv_scf|^2 =  5.315E-08

      iter #   2 total cpu time : 15650.8 secs   av.it.:  15.0
      thresh= 2.305E-05 alpha_mix =  0.700 |ddv_scf|^2 =  3.516E-08

      iter #   3 total cpu time : 15725.3 secs   av.it.:  14.0
      thresh= 1.875E-05 alpha_mix =  0.700 |ddv_scf|^2 =  1.722E-10

      iter #   4 total cpu time : 15802.6 secs   av.it.:  15.0
      thresh= 1.312E-06 alpha_mix =  0.700 |ddv_scf|^2 =  6.182E-12

      iter #   5 total cpu time : 15879.7 secs   av.it.:  15.0
      thresh= 2.486E-07 alpha_mix =  0.700 |ddv_scf|^2 =  1.296E-13

      iter #   6 total cpu time : 15959.7 secs   av.it.:  15.7
      thresh= 3.600E-08 alpha_mix =  0.700 |ddv_scf|^2 =  9.978E-15

     End of self-consistent calculation

     Convergence has been achieved 


     Representation #  28 mode #  28

     Self-consistent Calculation

      iter #   1 total cpu time : 16036.2 secs   av.it.:   3.0
      thresh= 1.000E-02 alpha_mix =  0.700 |ddv_scf|^2 =  9.243E-09

      iter #   2 total cpu time : 16114.7 secs   av.it.:  14.9
      thresh= 9.614E-06 alpha_mix =  0.700 |ddv_scf|^2 =  7.177E-09

      iter #   3 total cpu time : 16189.2 secs   av.it.:  14.0
      thresh= 8.472E-06 alpha_mix =  0.700 |ddv_scf|^2 =  3.818E-12

      iter #   4 total cpu time : 16270.8 secs   av.it.:  15.6
      thresh= 1.954E-07 alpha_mix =  0.700 |ddv_scf|^2 =  8.419E-13

      iter #   5 total cpu time : 16348.0 secs   av.it.:  15.0
      thresh= 9.176E-08 alpha_mix =  0.700 |ddv_scf|^2 =  1.080E-14

      iter #   6 total cpu time : 16424.1 secs   av.it.:  15.0
      thresh= 1.039E-08 alpha_mix =  0.700 |ddv_scf|^2 =  4.891E-16

     End of self-consistent calculation

     Convergence has been achieved 


     Representation #  29 mode #  29

     Self-consistent Calculation

      iter #   1 total cpu time : 16484.6 secs   av.it.:   3.9
      thresh= 1.000E-02 alpha_mix =  0.700 |ddv_scf|^2 =  4.857E-09

      iter #   2 total cpu time : 16565.7 secs   av.it.:  15.6
      thresh= 6.969E-06 alpha_mix =  0.700 |ddv_scf|^2 =  3.072E-09

      iter #   3 total cpu time : 16643.5 secs   av.it.:  14.9
      thresh= 5.543E-06 alpha_mix =  0.700 |ddv_scf|^2 =  4.183E-12

      iter #   4 total cpu time : 16723.4 secs   av.it.:  15.4
      thresh= 2.045E-07 alpha_mix =  0.700 |ddv_scf|^2 =  1.321E-12

      iter #   5 total cpu time : 16800.6 secs   av.it.:  15.0
      thresh= 1.149E-07 alpha_mix =  0.700 |ddv_scf|^2 =  5.553E-14

      iter #   6 total cpu time : 16878.7 secs   av.it.:  15.0
      thresh= 2.356E-08 alpha_mix =  0.700 |ddv_scf|^2 =  4.307E-15

     End of self-consistent calculation

     Convergence has been achieved 


     Representation #  30 mode #  30

     Self-consistent Calculation

      iter #   1 total cpu time : 16944.9 secs   av.it.:   5.0
      thresh= 1.000E-02 alpha_mix =  0.700 |ddv_scf|^2 =  5.069E-08

      iter #   2 total cpu time : 17023.4 secs   av.it.:  15.0
      thresh= 2.251E-05 alpha_mix =  0.700 |ddv_scf|^2 =  3.852E-08

      iter #   3 total cpu time : 17097.8 secs   av.it.:  14.0
      thresh= 1.963E-05 alpha_mix =  0.700 |ddv_scf|^2 =  8.579E-11

      iter #   4 total cpu time : 17176.6 secs   av.it.:  15.0
      thresh= 9.262E-07 alpha_mix =  0.700 |ddv_scf|^2 =  7.672E-12

      iter #   5 total cpu time : 17256.1 secs   av.it.:  15.0
      thresh= 2.770E-07 alpha_mix =  0.700 |ddv_scf|^2 =  4.290E-13

      iter #   6 total cpu time : 17336.0 secs   av.it.:  15.6
      thresh= 6.550E-08 alpha_mix =  0.700 |ddv_scf|^2 =  4.274E-14

      iter #   7 total cpu time : 17416.7 secs   av.it.:  15.3
      thresh= 2.067E-08 alpha_mix =  0.700 |ddv_scf|^2 =  2.267E-15

     End of self-consistent calculation

     Convergence has been achieved 


     Representation #  31 mode #  31

     Self-consistent Calculation

      iter #   1 total cpu time : 17492.7 secs   av.it.:   3.0
      thresh= 1.000E-02 alpha_mix =  0.700 |ddv_scf|^2 =  6.763E-09

      iter #   2 total cpu time : 17572.2 secs   av.it.:  15.0
      thresh= 8.224E-06 alpha_mix =  0.700 |ddv_scf|^2 =  3.587E-09

      iter #   3 total cpu time : 17648.2 secs   av.it.:  14.4
      thresh= 5.989E-06 alpha_mix =  0.700 |ddv_scf|^2 =  1.415E-11

      iter #   4 total cpu time : 17727.5 secs   av.it.:  15.0
      thresh= 3.762E-07 alpha_mix =  0.700 |ddv_scf|^2 =  1.832E-12

      iter #   5 total cpu time : 17804.0 secs   av.it.:  14.6
      thresh= 1.354E-07 alpha_mix =  0.700 |ddv_scf|^2 =  6.762E-14

      iter #   6 total cpu time : 17883.0 secs   av.it.:  15.0
      thresh= 2.600E-08 alpha_mix =  0.700 |ddv_scf|^2 =  8.262E-15

     End of self-consistent calculation

     Convergence has been achieved 


     Representation #  32 mode #  32

     Self-consistent Calculation

      iter #   1 total cpu time : 17943.2 secs   av.it.:   3.5
      thresh= 1.000E-02 alpha_mix =  0.700 |ddv_scf|^2 =  2.868E-09

      iter #   2 total cpu time : 18024.9 secs   av.it.:  15.9
      thresh= 5.355E-06 alpha_mix =  0.700 |ddv_scf|^2 =  1.722E-09

      iter #   3 total cpu time : 18102.0 secs   av.it.:  14.8
      thresh= 4.149E-06 alpha_mix =  0.700 |ddv_scf|^2 =  9.384E-12

      iter #   4 total cpu time : 18179.9 secs   av.it.:  15.0
      thresh= 3.063E-07 alpha_mix =  0.700 |ddv_scf|^2 =  1.137E-12

      iter #   5 total cpu time : 18258.9 secs   av.it.:  15.0
      thresh= 1.066E-07 alpha_mix =  0.700 |ddv_scf|^2 =  9.539E-14

      iter #   6 total cpu time : 18338.1 secs   av.it.:  15.0
      thresh= 3.089E-08 alpha_mix =  0.700 |ddv_scf|^2 =  7.962E-15

     End of self-consistent calculation

     Convergence has been achieved 


     Representation #  33 mode #  33

     Self-consistent Calculation

      iter #   1 total cpu time : 18398.5 secs   av.it.:   3.6
      thresh= 1.000E-02 alpha_mix =  0.700 |ddv_scf|^2 =  4.757E-09

      iter #   2 total cpu time : 18478.6 secs   av.it.:  15.7
      thresh= 6.897E-06 alpha_mix =  0.700 |ddv_scf|^2 =  3.640E-09

      iter #   3 total cpu time : 18552.6 secs   av.it.:  14.9
      thresh= 6.033E-06 alpha_mix =  0.700 |ddv_scf|^2 =  6.267E-12

      iter #   4 total cpu time : 18631.5 secs   av.it.:  15.9
      thresh= 2.503E-07 alpha_mix =  0.700 |ddv_scf|^2 =  4.606E-13

      iter #   5 total cpu time : 18711.2 secs   av.it.:  15.9
      thresh= 6.787E-08 alpha_mix =  0.700 |ddv_scf|^2 =  1.883E-14

      iter #   6 total cpu time : 18791.2 secs   av.it.:  15.9
      thresh= 1.372E-08 alpha_mix =  0.700 |ddv_scf|^2 =  1.037E-15

     End of self-consistent calculation

     Convergence has been achieved 


     Representation #  34 mode #  34

     Self-consistent Calculation

      iter #   1 total cpu time : 18849.7 secs   av.it.:   3.0
      thresh= 1.000E-02 alpha_mix =  0.700 |ddv_scf|^2 =  7.815E-10

      iter #   2 total cpu time : 18930.5 secs   av.it.:  15.8
      thresh= 2.795E-06 alpha_mix =  0.700 |ddv_scf|^2 =  6.867E-11

      iter #   3 total cpu time : 19010.8 secs   av.it.:  15.4
      thresh= 8.287E-07 alpha_mix =  0.700 |ddv_scf|^2 =  4.569E-12

      iter #   4 total cpu time : 19087.3 secs   av.it.:  15.1
      thresh= 2.138E-07 alpha_mix =  0.700 |ddv_scf|^2 =  4.456E-13

      iter #   5 total cpu time : 19162.2 secs   av.it.:  14.9
      thresh= 6.676E-08 alpha_mix =  0.700 |ddv_scf|^2 =  1.904E-14

      iter #   6 total cpu time : 19239.8 secs   av.it.:  15.8
      thresh= 1.380E-08 alpha_mix =  0.700 |ddv_scf|^2 =  8.785E-16

     End of self-consistent calculation

     Convergence has been achieved 


     Representation #  35 mode #  35

     Self-consistent Calculation

      iter #   1 total cpu time : 19297.7 secs   av.it.:   3.0
      thresh= 1.000E-02 alpha_mix =  0.700 |ddv_scf|^2 =  3.204E-09

      iter #   2 total cpu time : 19375.9 secs   av.it.:  15.3
      thresh= 5.661E-06 alpha_mix =  0.700 |ddv_scf|^2 =  1.407E-09

      iter #   3 total cpu time : 19453.0 secs   av.it.:  14.9
      thresh= 3.752E-06 alpha_mix =  0.700 |ddv_scf|^2 =  2.015E-11

      iter #   4 total cpu time : 19531.9 secs   av.it.:  15.0
      thresh= 4.489E-07 alpha_mix =  0.700 |ddv_scf|^2 =  5.373E-13

      iter #   5 total cpu time : 19612.6 secs   av.it.:  15.7
      thresh= 7.330E-08 alpha_mix =  0.700 |ddv_scf|^2 =  3.704E-14

      iter #   6 total cpu time : 19691.3 secs   av.it.:  15.0
      thresh= 1.925E-08 alpha_mix =  0.700 |ddv_scf|^2 =  1.451E-15

     End of self-consistent calculation

     Convergence has been achieved 


     Representation #  36 mode #  36

     Self-consistent Calculation

      iter #   1 total cpu time : 19756.0 secs   av.it.:   4.4
      thresh= 1.000E-02 alpha_mix =  0.700 |ddv_scf|^2 =  5.687E-09

      iter #   2 total cpu time : 19837.0 secs   av.it.:  16.0
      thresh= 7.541E-06 alpha_mix =  0.700 |ddv_scf|^2 =  4.009E-10

      iter #   3 total cpu time : 19918.4 secs   av.it.:  15.9
      thresh= 2.002E-06 alpha_mix =  0.700 |ddv_scf|^2 =  1.695E-11

      iter #   4 total cpu time : 19999.1 secs   av.it.:  15.7
      thresh= 4.117E-07 alpha_mix =  0.700 |ddv_scf|^2 =  3.918E-12

      iter #   5 total cpu time : 20078.2 secs   av.it.:  15.1
      thresh= 1.979E-07 alpha_mix =  0.700 |ddv_scf|^2 =  1.620E-13

      iter #   6 total cpu time : 20157.8 secs   av.it.:  15.2
      thresh= 4.025E-08 alpha_mix =  0.700 |ddv_scf|^2 =  3.794E-15

     End of self-consistent calculation

     Convergence has been achieved 


     Representation #  37 mode #  37

     Self-consistent Calculation

      iter #   1 total cpu time : 20233.6 secs   av.it.:   3.0
      thresh= 1.000E-02 alpha_mix =  0.700 |ddv_scf|^2 =  9.341E-10

      iter #   2 total cpu time : 20315.4 secs   av.it.:  15.9
      thresh= 3.056E-06 alpha_mix =  0.700 |ddv_scf|^2 =  1.655E-10

      iter #   3 total cpu time : 20395.0 secs   av.it.:  15.3
      thresh= 1.287E-06 alpha_mix =  0.700 |ddv_scf|^2 =  2.155E-11

      iter #   4 total cpu time : 20471.6 secs   av.it.:  14.9
      thresh= 4.642E-07 alpha_mix =  0.700 |ddv_scf|^2 =  2.998E-13

      iter #   5 total cpu time : 20550.7 secs   av.it.:  15.3
      thresh= 5.476E-08 alpha_mix =  0.700 |ddv_scf|^2 =  6.726E-15

     End of self-consistent calculation

     Convergence has been achieved 


     Representation #  38 mode #  38

     Self-consistent Calculation

      iter #   1 total cpu time : 20610.8 secs   av.it.:   3.0
      thresh= 1.000E-02 alpha_mix =  0.700 |ddv_scf|^2 =  1.962E-09

      iter #   2 total cpu time : 20691.5 secs   av.it.:  15.4
      thresh= 4.429E-06 alpha_mix =  0.700 |ddv_scf|^2 =  4.858E-10

      iter #   3 total cpu time : 20770.3 secs   av.it.:  15.0
      thresh= 2.204E-06 alpha_mix =  0.700 |ddv_scf|^2 =  1.797E-11

      iter #   4 total cpu time : 20848.4 secs   av.it.:  14.9
      thresh= 4.239E-07 alpha_mix =  0.700 |ddv_scf|^2 =  8.892E-13

      iter #   5 total cpu time : 20928.3 secs   av.it.:  15.4
      thresh= 9.430E-08 alpha_mix =  0.700 |ddv_scf|^2 =  2.672E-14

      iter #   6 total cpu time : 21008.4 secs   av.it.:  15.2
      thresh= 1.635E-08 alpha_mix =  0.700 |ddv_scf|^2 =  9.952E-16

     End of self-consistent calculation

     Convergence has been achieved 


     Representation #  39 mode #  39

     Self-consistent Calculation

      iter #   1 total cpu time : 21081.8 secs   av.it.:   6.3
      thresh= 1.000E-02 alpha_mix =  0.700 |ddv_scf|^2 =  2.326E-07

      iter #   2 total cpu time : 21159.8 secs   av.it.:  14.9
      thresh= 4.823E-05 alpha_mix =  0.700 |ddv_scf|^2 =  1.244E-07

      iter #   3 total cpu time : 21235.0 secs   av.it.:  14.6
      thresh= 3.527E-05 alpha_mix =  0.700 |ddv_scf|^2 =  5.456E-10

      iter #   4 total cpu time : 21314.0 secs   av.it.:  15.2
      thresh= 2.336E-06 alpha_mix =  0.700 |ddv_scf|^2 =  1.148E-11

      iter #   5 total cpu time : 21394.8 secs   av.it.:  15.5
      thresh= 3.388E-07 alpha_mix =  0.700 |ddv_scf|^2 =  4.811E-13

      iter #   6 total cpu time : 21471.9 secs   av.it.:  14.6
      thresh= 6.936E-08 alpha_mix =  0.700 |ddv_scf|^2 =  2.484E-14

      iter #   7 total cpu time : 21548.3 secs   av.it.:  14.7
      thresh= 1.576E-08 alpha_mix =  0.700 |ddv_scf|^2 =  3.620E-15

     End of self-consistent calculation

     Convergence has been achieved 


     Representation #  40 mode #  40

     Self-consistent Calculation

      iter #   1 total cpu time : 21618.3 secs   av.it.:   4.6
      thresh= 1.000E-02 alpha_mix =  0.700 |ddv_scf|^2 =  8.362E-09

      iter #   2 total cpu time : 21700.2 secs   av.it.:  15.9
      thresh= 9.145E-06 alpha_mix =  0.700 |ddv_scf|^2 =  2.000E-09

      iter #   3 total cpu time : 21779.3 secs   av.it.:  15.0
      thresh= 4.472E-06 alpha_mix =  0.700 |ddv_scf|^2 =  6.720E-11

      iter #   4 total cpu time : 21857.7 secs   av.it.:  14.9
      thresh= 8.198E-07 alpha_mix =  0.700 |ddv_scf|^2 =  6.147E-12

      iter #   5 total cpu time : 21936.9 secs   av.it.:  15.2
      thresh= 2.479E-07 alpha_mix =  0.700 |ddv_scf|^2 =  3.405E-13

      iter #   6 total cpu time : 22017.0 secs   av.it.:  15.6
      thresh= 5.835E-08 alpha_mix =  0.700 |ddv_scf|^2 =  1.095E-15

     End of self-consistent calculation

     Convergence has been achieved 


     Representation #  41 mode #  41

     Self-consistent Calculation

      iter #   1 total cpu time : 22094.8 secs   av.it.:   3.9
      thresh= 1.000E-02 alpha_mix =  0.700 |ddv_scf|^2 =  6.254E-09

      iter #   2 total cpu time : 22174.4 secs   av.it.:  15.3
      thresh= 7.908E-06 alpha_mix =  0.700 |ddv_scf|^2 =  4.350E-09

      iter #   3 total cpu time : 22249.7 secs   av.it.:  14.8
      thresh= 6.596E-06 alpha_mix =  0.700 |ddv_scf|^2 =  5.117E-12

      iter #   4 total cpu time : 22329.2 secs   av.it.:  15.8
      thresh= 2.262E-07 alpha_mix =  0.700 |ddv_scf|^2 =  7.767E-13

      iter #   5 total cpu time : 22408.3 secs   av.it.:  15.3
      thresh= 8.813E-08 alpha_mix =  0.700 |ddv_scf|^2 =  4.891E-14

      iter #   6 total cpu time : 22487.5 secs   av.it.:  15.0
      thresh= 2.211E-08 alpha_mix =  0.700 |ddv_scf|^2 =  7.050E-16

     End of self-consistent calculation

     Convergence has been achieved 


     Representation #  42 mode #  42

     Self-consistent Calculation

      iter #   1 total cpu time : 22545.5 secs   av.it.:   3.0
      thresh= 1.000E-02 alpha_mix =  0.700 |ddv_scf|^2 =  3.904E-10

      iter #   2 total cpu time : 22624.5 secs   av.it.:  15.6
      thresh= 1.976E-06 alpha_mix =  0.700 |ddv_scf|^2 =  1.798E-11

      iter #   3 total cpu time : 22706.6 secs   av.it.:  15.9
      thresh= 4.241E-07 alpha_mix =  0.700 |ddv_scf|^2 =  9.994E-12

      iter #   4 total cpu time : 22784.2 secs   av.it.:  14.9
      thresh= 3.161E-07 alpha_mix =  0.700 |ddv_scf|^2 =  1.939E-13

      iter #   5 total cpu time : 22860.5 secs   av.it.:  15.0
      thresh= 4.403E-08 alpha_mix =  0.700 |ddv_scf|^2 =  1.148E-14

      iter #   6 total cpu time : 22935.5 secs   av.it.:  15.3
      thresh= 1.072E-08 alpha_mix =  0.700 |ddv_scf|^2 =  5.304E-16

     End of self-consistent calculation

     Convergence has been achieved 


     Representation #  43 mode #  43

     Self-consistent Calculation

      iter #   1 total cpu time : 23000.1 secs   av.it.:   4.5
      thresh= 1.000E-02 alpha_mix =  0.700 |ddv_scf|^2 =  5.771E-09

      iter #   2 total cpu time : 23081.4 secs   av.it.:  15.9
      thresh= 7.597E-06 alpha_mix =  0.700 |ddv_scf|^2 =  4.489E-10

      iter #   3 total cpu time : 23161.1 secs   av.it.:  15.9
      thresh= 2.119E-06 alpha_mix =  0.700 |ddv_scf|^2 =  3.570E-11

      iter #   4 total cpu time : 23240.0 secs   av.it.:  15.0
      thresh= 5.975E-07 alpha_mix =  0.700 |ddv_scf|^2 =  4.289E-12

      iter #   5 total cpu time : 23318.9 secs   av.it.:  15.0
      thresh= 2.071E-07 alpha_mix =  0.700 |ddv_scf|^2 =  2.093E-14

      iter #   6 total cpu time : 23401.4 secs   av.it.:  15.9
      thresh= 1.447E-08 alpha_mix =  0.700 |ddv_scf|^2 =  8.011E-16

     End of self-consistent calculation

     Convergence has been achieved 


     Representation #  44 mode #  44

     Self-consistent Calculation

      iter #   1 total cpu time : 23491.8 secs   av.it.:   6.4
      thresh= 1.000E-02 alpha_mix =  0.700 |ddv_scf|^2 =  7.621E-08

      iter #   2 total cpu time : 23571.6 secs   av.it.:  15.4
      thresh= 2.761E-05 alpha_mix =  0.700 |ddv_scf|^2 =  2.376E-08

      iter #   3 total cpu time : 23650.5 secs   av.it.:  14.9
      thresh= 1.541E-05 alpha_mix =  0.700 |ddv_scf|^2 =  3.561E-10

      iter #   4 total cpu time : 23729.1 secs   av.it.:  14.9
      thresh= 1.887E-06 alpha_mix =  0.700 |ddv_scf|^2 =  1.950E-11

      iter #   5 total cpu time : 23808.9 secs   av.it.:  14.9
      thresh= 4.416E-07 alpha_mix =  0.700 |ddv_scf|^2 =  1.296E-13

      iter #   6 total cpu time : 23889.8 secs   av.it.:  15.6
      thresh= 3.600E-08 alpha_mix =  0.700 |ddv_scf|^2 =  5.408E-15

     End of self-consistent calculation

     Convergence has been achieved 


     Representation #  45 mode #  45

     Self-consistent Calculation

      iter #   1 total cpu time : 23954.0 secs   av.it.:   3.0
      thresh= 1.000E-02 alpha_mix =  0.700 |ddv_scf|^2 =  1.153E-09

      iter #   2 total cpu time : 24036.3 secs   av.it.:  15.9
      thresh= 3.396E-06 alpha_mix =  0.700 |ddv_scf|^2 =  2.759E-10

      iter #   3 total cpu time : 24116.4 secs   av.it.:  15.0
      thresh= 1.661E-06 alpha_mix =  0.700 |ddv_scf|^2 =  1.773E-11

      iter #   4 total cpu time : 24195.7 secs   av.it.:  15.0
      thresh= 4.210E-07 alpha_mix =  0.700 |ddv_scf|^2 =  4.635E-13

      iter #   5 total cpu time : 24274.9 secs   av.it.:  15.3
      thresh= 6.808E-08 alpha_mix =  0.700 |ddv_scf|^2 =  2.181E-14

      iter #   6 total cpu time : 24354.3 secs   av.it.:  15.1
      thresh= 1.477E-08 alpha_mix =  0.700 |ddv_scf|^2 =  1.173E-15

     End of self-consistent calculation

     Convergence has been achieved 


     Representation #  46 mode #  46

     Self-consistent Calculation

      iter #   1 total cpu time : 24413.9 secs   av.it.:   3.0
      thresh= 1.000E-02 alpha_mix =  0.700 |ddv_scf|^2 =  2.725E-09

      iter #   2 total cpu time : 24494.6 secs   av.it.:  15.9
      thresh= 5.220E-06 alpha_mix =  0.700 |ddv_scf|^2 =  2.127E-09

      iter #   3 total cpu time : 24571.1 secs   av.it.:  14.9
      thresh= 4.611E-06 alpha_mix =  0.700 |ddv_scf|^2 =  5.765E-12

      iter #   4 total cpu time : 24654.1 secs   av.it.:  15.9
      thresh= 2.401E-07 alpha_mix =  0.700 |ddv_scf|^2 =  5.489E-13

      iter #   5 total cpu time : 24732.7 secs   av.it.:  15.9
      thresh= 7.409E-08 alpha_mix =  0.700 |ddv_scf|^2 =  8.266E-15

     End of self-consistent calculation

     Convergence has been achieved 


     Representation #  47 mode #  47

     Self-consistent Calculation

      iter #   1 total cpu time : 24792.5 secs   av.it.:   3.7
      thresh= 1.000E-02 alpha_mix =  0.700 |ddv_scf|^2 =  2.981E-09

      iter #   2 total cpu time : 24872.8 secs   av.it.:  15.9
      thresh= 5.460E-06 alpha_mix =  0.700 |ddv_scf|^2 =  2.388E-09

      iter #   3 total cpu time : 24948.1 secs   av.it.:  14.9
      thresh= 4.887E-06 alpha_mix =  0.700 |ddv_scf|^2 =  7.147E-12

      iter #   4 total cpu time : 25030.1 secs   av.it.:  15.9
      thresh= 2.673E-07 alpha_mix =  0.700 |ddv_scf|^2 =  5.425E-13

      iter #   5 total cpu time : 25112.2 secs   av.it.:  15.8
      thresh= 7.366E-08 alpha_mix =  0.700 |ddv_scf|^2 =  1.041E-14

      iter #   6 total cpu time : 25194.2 secs   av.it.:  15.9
      thresh= 1.020E-08 alpha_mix =  0.700 |ddv_scf|^2 =  7.708E-16

     End of self-consistent calculation

     Convergence has been achieved 


     Representation #  48 mode #  48

     Self-consistent Calculation

      iter #   1 total cpu time : 25253.1 secs   av.it.:   3.0
      thresh= 1.000E-02 alpha_mix =  0.700 |ddv_scf|^2 =  4.150E-10

      iter #   2 total cpu time : 25335.4 secs   av.it.:  15.9
      thresh= 2.037E-06 alpha_mix =  0.700 |ddv_scf|^2 =  2.269E-11

      iter #   3 total cpu time : 25418.1 secs   av.it.:  15.9
      thresh= 4.764E-07 alpha_mix =  0.700 |ddv_scf|^2 =  2.491E-12

      iter #   4 total cpu time : 25500.1 secs   av.it.:  15.9
      thresh= 1.578E-07 alpha_mix =  0.700 |ddv_scf|^2 =  1.982E-13

      iter #   5 total cpu time : 25579.6 secs   av.it.:  15.0
      thresh= 4.452E-08 alpha_mix =  0.700 |ddv_scf|^2 =  2.167E-14

      iter #   6 total cpu time : 25658.1 secs   av.it.:  14.9
      thresh= 1.472E-08 alpha_mix =  0.700 |ddv_scf|^2 =  5.960E-16

     End of self-consistent calculation

     Convergence has been achieved 


     Representation #  49 mode #  49

     Self-consistent Calculation

      iter #   1 total cpu time : 25717.4 secs   av.it.:   3.0
      thresh= 1.000E-02 alpha_mix =  0.700 |ddv_scf|^2 =  1.217E-09

      iter #   2 total cpu time : 25798.8 secs   av.it.:  15.9
      thresh= 3.488E-06 alpha_mix =  0.700 |ddv_scf|^2 =  6.491E-10

      iter #   3 total cpu time : 25876.1 secs   av.it.:  14.9
      thresh= 2.548E-06 alpha_mix =  0.700 |ddv_scf|^2 =  9.028E-12

      iter #   4 total cpu time : 25953.5 secs   av.it.:  15.0
      thresh= 3.005E-07 alpha_mix =  0.700 |ddv_scf|^2 =  5.467E-13

      iter #   5 total cpu time : 26034.5 secs   av.it.:  15.9
      thresh= 7.394E-08 alpha_mix =  0.700 |ddv_scf|^2 =  1.621E-14

      iter #   6 total cpu time : 26115.9 secs   av.it.:  15.8
      thresh= 1.273E-08 alpha_mix =  0.700 |ddv_scf|^2 =  6.564E-16

     End of self-consistent calculation

     Convergence has been achieved 


     Representation #  50 mode #  50

     Self-consistent Calculation

      iter #   1 total cpu time : 26181.5 secs   av.it.:   4.8
      thresh= 1.000E-02 alpha_mix =  0.700 |ddv_scf|^2 =  1.037E-08

      iter #   2 total cpu time : 26262.4 secs   av.it.:  15.9
      thresh= 1.018E-05 alpha_mix =  0.700 |ddv_scf|^2 =  4.453E-09

      iter #   3 total cpu time : 26339.2 secs   av.it.:  14.9
      thresh= 6.673E-06 alpha_mix =  0.700 |ddv_scf|^2 =  1.306E-10

      iter #   4 total cpu time : 26417.2 secs   av.it.:  15.0
      thresh= 1.143E-06 alpha_mix =  0.700 |ddv_scf|^2 =  2.785E-12

      iter #   5 total cpu time : 26497.5 secs   av.it.:  15.6
      thresh= 1.669E-07 alpha_mix =  0.700 |ddv_scf|^2 =  4.917E-13

      iter #   6 total cpu time : 26576.4 secs   av.it.:  15.0
      thresh= 7.012E-08 alpha_mix =  0.700 |ddv_scf|^2 =  1.735E-15

     End of self-consistent calculation

     Convergence has been achieved 


     Representation #  51 mode #  51

     Self-consistent Calculation

      iter #   1 total cpu time : 26653.4 secs   av.it.:   3.1
      thresh= 1.000E-02 alpha_mix =  0.700 |ddv_scf|^2 =  3.230E-09

      iter #   2 total cpu time : 26735.7 secs   av.it.:  15.9
      thresh= 5.683E-06 alpha_mix =  0.700 |ddv_scf|^2 =  2.540E-09

      iter #   3 total cpu time : 26813.4 secs   av.it.:  14.9
      thresh= 5.040E-06 alpha_mix =  0.700 |ddv_scf|^2 =  5.634E-12

      iter #   4 total cpu time : 26895.3 secs   av.it.:  15.9
      thresh= 2.374E-07 alpha_mix =  0.700 |ddv_scf|^2 =  1.080E-12

      iter #   5 total cpu time : 26974.7 secs   av.it.:  15.6
      thresh= 1.039E-07 alpha_mix =  0.700 |ddv_scf|^2 =  5.645E-14

      iter #   6 total cpu time : 27053.7 secs   av.it.:  15.6
      thresh= 2.376E-08 alpha_mix =  0.700 |ddv_scf|^2 =  2.675E-15

     End of self-consistent calculation

     Convergence has been achieved 


     Representation #  52 mode #  52

     Self-consistent Calculation

      iter #   1 total cpu time : 27113.6 secs   av.it.:   3.1
      thresh= 1.000E-02 alpha_mix =  0.700 |ddv_scf|^2 =  2.390E-09

      iter #   2 total cpu time : 27194.9 secs   av.it.:  15.9
      thresh= 4.889E-06 alpha_mix =  0.700 |ddv_scf|^2 =  1.282E-09

      iter #   3 total cpu time : 27272.4 secs   av.it.:  14.9
      thresh= 3.581E-06 alpha_mix =  0.700 |ddv_scf|^2 =  1.371E-11

      iter #   4 total cpu time : 27351.0 secs   av.it.:  15.0
      thresh= 3.702E-07 alpha_mix =  0.700 |ddv_scf|^2 =  1.383E-12

      iter #   5 total cpu time : 27430.3 secs   av.it.:  15.2
      thresh= 1.176E-07 alpha_mix =  0.700 |ddv_scf|^2 =  4.773E-14

      iter #   6 total cpu time : 27510.1 secs   av.it.:  15.2
      thresh= 2.185E-08 alpha_mix =  0.700 |ddv_scf|^2 =  1.293E-15

     End of self-consistent calculation

     Convergence has been achieved 


     Representation #  53 mode #  53

     Self-consistent Calculation

      iter #   1 total cpu time : 27569.9 secs   av.it.:   3.0
      thresh= 1.000E-02 alpha_mix =  0.700 |ddv_scf|^2 =  1.374E-09

      iter #   2 total cpu time : 27650.7 secs   av.it.:  15.9
      thresh= 3.707E-06 alpha_mix =  0.700 |ddv_scf|^2 =  6.052E-10

      iter #   3 total cpu time : 27729.5 secs   av.it.:  14.9
      thresh= 2.460E-06 alpha_mix =  0.700 |ddv_scf|^2 =  9.160E-12

      iter #   4 total cpu time : 27809.5 secs   av.it.:  15.4
      thresh= 3.027E-07 alpha_mix =  0.700 |ddv_scf|^2 =  1.237E-12

      iter #   5 total cpu time : 27887.8 secs   av.it.:  15.0
      thresh= 1.112E-07 alpha_mix =  0.700 |ddv_scf|^2 =  6.073E-14

      iter #   6 total cpu time : 27967.7 secs   av.it.:  15.2
      thresh= 2.464E-08 alpha_mix =  0.700 |ddv_scf|^2 =  1.760E-15

     End of self-consistent calculation

     Convergence has been achieved 


     Representation #  54 mode #  54

     Self-consistent Calculation

      iter #   1 total cpu time : 28027.8 secs   av.it.:   3.0
      thresh= 1.000E-02 alpha_mix =  0.700 |ddv_scf|^2 =  4.422E-09

      iter #   2 total cpu time : 28107.0 secs   av.it.:  15.1
      thresh= 6.650E-06 alpha_mix =  0.700 |ddv_scf|^2 =  3.158E-09

      iter #   3 total cpu time : 28180.5 secs   av.it.:  14.5
      thresh= 5.620E-06 alpha_mix =  0.700 |ddv_scf|^2 =  6.596E-12

      iter #   4 total cpu time : 28258.1 secs   av.it.:  15.6
      thresh= 2.568E-07 alpha_mix =  0.700 |ddv_scf|^2 =  7.525E-13

      iter #   5 total cpu time : 28335.6 secs   av.it.:  15.3
      thresh= 8.675E-08 alpha_mix =  0.700 |ddv_scf|^2 =  2.532E-14

      iter #   6 total cpu time : 28413.6 secs   av.it.:  15.9
      thresh= 1.591E-08 alpha_mix =  0.700 |ddv_scf|^2 =  2.159E-15

     End of self-consistent calculation

     Convergence has been achieved 


     Representation #  55 mode #  55

     Self-consistent Calculation

      iter #   1 total cpu time : 28472.2 secs   av.it.:   3.0
      thresh= 1.000E-02 alpha_mix =  0.700 |ddv_scf|^2 =  7.214E-10

      iter #   2 total cpu time : 28553.7 secs   av.it.:  15.9
      thresh= 2.686E-06 alpha_mix =  0.700 |ddv_scf|^2 =  1.733E-10

      iter #   3 total cpu time : 28632.6 secs   av.it.:  15.4
      thresh= 1.316E-06 alpha_mix =  0.700 |ddv_scf|^2 =  7.165E-12

      iter #   4 total cpu time : 28711.5 secs   av.it.:  15.4
      thresh= 2.677E-07 alpha_mix =  0.700 |ddv_scf|^2 =  1.440E-13

      iter #   5 total cpu time : 28791.9 secs   av.it.:  15.9
      thresh= 3.795E-08 alpha_mix =  0.700 |ddv_scf|^2 =  2.258E-14

      iter #   6 total cpu time : 28871.3 secs   av.it.:  15.0
      thresh= 1.503E-08 alpha_mix =  0.700 |ddv_scf|^2 =  1.976E-15

     End of self-consistent calculation

     Convergence has been achieved 


     Representation #  56 mode #  56

     Self-consistent Calculation

      iter #   1 total cpu time : 28946.7 secs   av.it.:   6.9
      thresh= 1.000E-02 alpha_mix =  0.700 |ddv_scf|^2 =  2.182E-07

      iter #   2 total cpu time : 29025.8 secs   av.it.:  15.1
      thresh= 4.671E-05 alpha_mix =  0.700 |ddv_scf|^2 =  1.758E-07

      iter #   3 total cpu time : 29101.2 secs   av.it.:  14.5
      thresh= 4.193E-05 alpha_mix =  0.700 |ddv_scf|^2 =  1.590E-10

      iter #   4 total cpu time : 29182.8 secs   av.it.:  15.6
      thresh= 1.261E-06 alpha_mix =  0.700 |ddv_scf|^2 =  2.228E-11

      iter #   5 total cpu time : 29262.8 secs   av.it.:  15.5
      thresh= 4.720E-07 alpha_mix =  0.700 |ddv_scf|^2 =  1.240E-12

      iter #   6 total cpu time : 29342.0 secs   av.it.:  15.4
      thresh= 1.113E-07 alpha_mix =  0.700 |ddv_scf|^2 =  2.771E-14

      iter #   7 total cpu time : 29423.1 secs   av.it.:  15.7
      thresh= 1.665E-08 alpha_mix =  0.700 |ddv_scf|^2 =  2.261E-15

     End of self-consistent calculation

     Convergence has been achieved 


     Representation #  57 mode #  57

     Self-consistent Calculation

      iter #   1 total cpu time : 29494.0 secs   av.it.:   5.0
      thresh= 1.000E-02 alpha_mix =  0.700 |ddv_scf|^2 =  3.660E-08

      iter #   2 total cpu time : 29573.3 secs   av.it.:  15.1
      thresh= 1.913E-05 alpha_mix =  0.700 |ddv_scf|^2 =  2.609E-08

      iter #   3 total cpu time : 29648.9 secs   av.it.:  14.6
      thresh= 1.615E-05 alpha_mix =  0.700 |ddv_scf|^2 =  5.715E-11

      iter #   4 total cpu time : 29729.6 secs   av.it.:  15.9
      thresh= 7.559E-07 alpha_mix =  0.700 |ddv_scf|^2 =  5.662E-12

      iter #   5 total cpu time : 29809.6 secs   av.it.:  15.6
      thresh= 2.379E-07 alpha_mix =  0.700 |ddv_scf|^2 =  9.125E-13

      iter #   6 total cpu time : 29888.8 secs   av.it.:  15.3
      thresh= 9.552E-08 alpha_mix =  0.700 |ddv_scf|^2 =  5.496E-15

     End of self-consistent calculation

     Convergence has been achieved 


     Representation #  58 mode #  58

     Self-consistent Calculation

      iter #   1 total cpu time : 29963.9 secs   av.it.:   3.0
      thresh= 1.000E-02 alpha_mix =  0.700 |ddv_scf|^2 =  9.041E-10

      iter #   2 total cpu time : 30043.4 secs   av.it.:  15.6
      thresh= 3.007E-06 alpha_mix =  0.700 |ddv_scf|^2 =  3.817E-10

      iter #   3 total cpu time : 30119.7 secs   av.it.:  14.9
      thresh= 1.954E-06 alpha_mix =  0.700 |ddv_scf|^2 =  1.309E-11

      iter #   4 total cpu time : 30196.9 secs   av.it.:  14.9
      thresh= 3.617E-07 alpha_mix =  0.700 |ddv_scf|^2 =  4.887E-13

      iter #   5 total cpu time : 30276.9 secs   av.it.:  15.3
      thresh= 6.991E-08 alpha_mix =  0.700 |ddv_scf|^2 =  2.565E-14

      iter #   6 total cpu time : 30356.3 secs   av.it.:  15.4
      thresh= 1.601E-08 alpha_mix =  0.700 |ddv_scf|^2 =  1.861E-15

     End of self-consistent calculation

     Convergence has been achieved 


     Representation #  59 mode #  59

     Self-consistent Calculation

      iter #   1 total cpu time : 30415.1 secs   av.it.:   3.0
      thresh= 1.000E-02 alpha_mix =  0.700 |ddv_scf|^2 =  1.580E-09

      iter #   2 total cpu time : 30494.5 secs   av.it.:  15.9
      thresh= 3.974E-06 alpha_mix =  0.700 |ddv_scf|^2 =  7.414E-10

      iter #   3 total cpu time : 30569.4 secs   av.it.:  14.9
      thresh= 2.723E-06 alpha_mix =  0.700 |ddv_scf|^2 =  1.252E-11

      iter #   4 total cpu time : 30647.9 secs   av.it.:  15.0
      thresh= 3.538E-07 alpha_mix =  0.700 |ddv_scf|^2 =  1.300E-12

      iter #   5 total cpu time : 30727.3 secs   av.it.:  15.0
      thresh= 1.140E-07 alpha_mix =  0.700 |ddv_scf|^2 =  4.379E-14

      iter #   6 total cpu time : 30807.0 secs   av.it.:  15.3
      thresh= 2.093E-08 alpha_mix =  0.700 |ddv_scf|^2 =  1.578E-15

     End of self-consistent calculation

     Convergence has been achieved 


     Representation #  60 mode #  60

     Self-consistent Calculation

      iter #   1 total cpu time : 30866.6 secs   av.it.:   3.0
      thresh= 1.000E-02 alpha_mix =  0.700 |ddv_scf|^2 =  2.336E-09

      iter #   2 total cpu time : 30948.3 secs   av.it.:  15.9
      thresh= 4.833E-06 alpha_mix =  0.700 |ddv_scf|^2 =  1.280E-09

      iter #   3 total cpu time : 31026.5 secs   av.it.:  14.9
      thresh= 3.577E-06 alpha_mix =  0.700 |ddv_scf|^2 =  5.786E-12

      iter #   4 total cpu time : 31103.9 secs   av.it.:  15.3
      thresh= 2.405E-07 alpha_mix =  0.700 |ddv_scf|^2 =  1.664E-12

      iter #   5 total cpu time : 31179.4 secs   av.it.:  15.0
      thresh= 1.290E-07 alpha_mix =  0.700 |ddv_scf|^2 =  5.043E-14

      iter #   6 total cpu time : 31259.6 secs   av.it.:  15.6
      thresh= 2.246E-08 alpha_mix =  0.700 |ddv_scf|^2 =  2.216E-15

     End of self-consistent calculation

     Convergence has been achieved 


     Representation #  61 mode #  61

     Self-consistent Calculation

      iter #   1 total cpu time : 31320.0 secs   av.it.:   3.3
      thresh= 1.000E-02 alpha_mix =  0.700 |ddv_scf|^2 =  5.415E-09

      iter #   2 total cpu time : 31399.9 secs   av.it.:  15.2
      thresh= 7.358E-06 alpha_mix =  0.700 |ddv_scf|^2 =  3.488E-09

      iter #   3 total cpu time : 31476.3 secs   av.it.:  14.8
      thresh= 5.906E-06 alpha_mix =  0.700 |ddv_scf|^2 =  1.432E-11

      iter #   4 total cpu time : 31554.7 secs   av.it.:  15.0
      thresh= 3.784E-07 alpha_mix =  0.700 |ddv_scf|^2 =  1.300E-12

      iter #   5 total cpu time : 31634.5 secs   av.it.:  15.3
      thresh= 1.140E-07 alpha_mix =  0.700 |ddv_scf|^2 =  7.251E-14

      iter #   6 total cpu time : 31714.0 secs   av.it.:  15.0
      thresh= 2.693E-08 alpha_mix =  0.700 |ddv_scf|^2 =  1.507E-15

     End of self-consistent calculation

     Convergence has been achieved 


[...]

      iter #   4 total cpu time :903045.5 secs   av.it.:  15.0
      thresh= 7.271E-07 alpha_mix =  0.700 |ddv_scf|^2 =  3.948E-12

      iter #   5 total cpu time :903401.1 secs   av.it.:  15.0
      thresh= 1.987E-07 alpha_mix =  0.700 |ddv_scf|^2 =  2.136E-13

      iter #   6 total cpu time :903751.6 secs   av.it.:  15.0
      thresh= 4.622E-08 alpha_mix =  0.700 |ddv_scf|^2 =  1.711E-14

      iter #   7 total cpu time :904108.3 secs   av.it.:  15.6
      thresh= 1.308E-08 alpha_mix =  0.700 |ddv_scf|^2 =  1.660E-15

     End of self-consistent calculation

     Convergence has been achieved 


     Representation #  64 mode #  64

     Self-consistent Calculation

      iter #   1 total cpu time :904277.4 secs   av.it.:   3.2
      thresh= 1.000E-02 alpha_mix =  0.700 |ddv_scf|^2 =  5.015E-09

      iter #   2 total cpu time :904634.1 secs   av.it.:  15.9
      thresh= 7.081E-06 alpha_mix =  0.700 |ddv_scf|^2 =  3.996E-09

      iter #   3 total cpu time :904979.6 secs   av.it.:  15.0
      thresh= 6.321E-06 alpha_mix =  0.700 |ddv_scf|^2 =  4.330E-11

      iter #   4 total cpu time :905334.7 secs   av.it.:  15.0
      thresh= 6.580E-07 alpha_mix =  0.700 |ddv_scf|^2 =  5.329E-12

      iter #   5 total cpu time :905687.8 secs   av.it.:  15.0
      thresh= 2.309E-07 alpha_mix =  0.700 |ddv_scf|^2 =  2.174E-13

      iter #   6 total cpu time :906049.1 secs   av.it.:  15.3
      thresh= 4.663E-08 alpha_mix =  0.700 |ddv_scf|^2 =  1.920E-14

      iter #   7 total cpu time :906407.5 secs   av.it.:  15.3
      thresh= 1.385E-08 alpha_mix =  0.700 |ddv_scf|^2 =  2.720E-15

     End of self-consistent calculation

     Convergence has been achieved 


     Representation #  65 mode #  65

     Self-consistent Calculation

      iter #   1 total cpu time :906576.4 secs   av.it.:   3.0
      thresh= 1.000E-02 alpha_mix =  0.700 |ddv_scf|^2 =  4.902E-09

      iter #   2 total cpu time :906933.5 secs   av.it.:  15.1
      thresh= 7.001E-06 alpha_mix =  0.700 |ddv_scf|^2 =  5.070E-09

      iter #   3 total cpu time :907262.0 secs   av.it.:  14.0
      thresh= 7.120E-06 alpha_mix =  0.700 |ddv_scf|^2 =  3.675E-11

      iter #   4 total cpu time :907619.0 secs   av.it.:  15.0
      thresh= 6.062E-07 alpha_mix =  0.700 |ddv_scf|^2 =  2.584E-12

      iter #   5 total cpu time :907979.6 secs   av.it.:  15.2
      thresh= 1.607E-07 alpha_mix =  0.700 |ddv_scf|^2 =  1.761E-13

      iter #   6 total cpu time :908336.1 secs   av.it.:  15.0
      thresh= 4.196E-08 alpha_mix =  0.700 |ddv_scf|^2 =  1.243E-14

      iter #   7 total cpu time :908697.6 secs   av.it.:  15.2
      thresh= 1.115E-08 alpha_mix =  0.700 |ddv_scf|^2 =  1.028E-15

     End of self-consistent calculation

     Convergence has been achieved 


     Representation #  66 mode #  66

     Self-consistent Calculation

      iter #   1 total cpu time :908869.2 secs   av.it.:   3.1
      thresh= 1.000E-02 alpha_mix =  0.700 |ddv_scf|^2 =  4.028E-09

      iter #   2 total cpu time :909227.1 secs   av.it.:  15.9
      thresh= 6.347E-06 alpha_mix =  0.700 |ddv_scf|^2 =  2.858E-09

      iter #   3 total cpu time :909571.3 secs   av.it.:  15.0
      thresh= 5.346E-06 alpha_mix =  0.700 |ddv_scf|^2 =  6.342E-11

      iter #   4 total cpu time :909918.1 secs   av.it.:  15.0
      thresh= 7.964E-07 alpha_mix =  0.700 |ddv_scf|^2 =  3.379E-12

      iter #   5 total cpu time :910274.6 secs   av.it.:  15.0
      thresh= 1.838E-07 alpha_mix =  0.700 |ddv_scf|^2 =  1.357E-13

      iter #   6 total cpu time :910631.1 secs   av.it.:  15.6
      thresh= 3.684E-08 alpha_mix =  0.700 |ddv_scf|^2 =  1.495E-14

      iter #   7 total cpu time :910989.3 secs   av.it.:  15.1
      thresh= 1.223E-08 alpha_mix =  0.700 |ddv_scf|^2 =  1.298E-15

     End of self-consistent calculation

     Convergence has been achieved 

     Number of q in the star =    4
     List of q in the star:
          1   0.333333333   0.321683215   0.473566411
          2   0.333333333  -0.321683215  -0.473566411
          3  -0.333333333   0.321683215  -0.473566411
          4  -0.333333333  -0.321683215   0.473566411
     In addition there is the -q list: 
          1  -0.333333333  -0.321683215  -0.473566411
          2  -0.333333333   0.321683215   0.473566411
          3   0.333333333  -0.321683215   0.473566411
          4   0.333333333   0.321683215  -0.473566411

     Diagonalizing the dynamical matrix

     q = (    0.333333333   0.321683215   0.473566411 ) 

 **************************************************************************
     freq (    1) =       1.263825 [THz] =      42.156681 [cm-1]
     freq (    2) =       1.313113 [THz] =      43.800743 [cm-1]
     freq (    3) =       1.898323 [THz] =      63.321233 [cm-1]
     freq (    4) =       2.135598 [THz] =      71.235893 [cm-1]
     freq (    5) =       2.981556 [THz] =      99.454012 [cm-1]
     freq (    6) =       3.088496 [THz] =     103.021134 [cm-1]
     freq (    7) =       5.113721 [THz] =     170.575383 [cm-1]
     freq (    8) =       5.254771 [THz] =     175.280291 [cm-1]
     freq (    9) =       6.083707 [THz] =     202.930633 [cm-1]
     freq (   10) =       6.362880 [THz] =     212.242823 [cm-1]
     freq (   11) =       6.779860 [THz] =     226.151789 [cm-1]
     freq (   12) =       6.798797 [THz] =     226.783463 [cm-1]
     freq (   13) =       7.108372 [THz] =     237.109776 [cm-1]
     freq (   14) =       7.466945 [THz] =     249.070487 [cm-1]
     freq (   15) =       7.932572 [THz] =     264.602131 [cm-1]
     freq (   16) =       8.021735 [THz] =     267.576285 [cm-1]
     freq (   17) =       8.946759 [THz] =     298.431768 [cm-1]
     freq (   18) =       9.007550 [THz] =     300.459523 [cm-1]
     freq (   19) =       9.432491 [THz] =     314.634042 [cm-1]
     freq (   20) =       9.476421 [THz] =     316.099369 [cm-1]
     freq (   21) =      10.125641 [THz] =     337.755028 [cm-1]
     freq (   22) =      10.340319 [THz] =     344.915906 [cm-1]
     freq (   23) =      10.953266 [THz] =     365.361626 [cm-1]
     freq (   24) =      10.975665 [THz] =     366.108791 [cm-1]
     freq (   25) =      11.330752 [THz] =     377.953206 [cm-1]
     freq (   26) =      11.422160 [THz] =     381.002258 [cm-1]
     freq (   27) =      13.954011 [THz] =     465.455721 [cm-1]
     freq (   28) =      14.036629 [THz] =     468.211558 [cm-1]
     freq (   29) =      14.064339 [THz] =     469.135857 [cm-1]
     freq (   30) =      14.165757 [THz] =     472.518805 [cm-1]
     freq (   31) =      30.920025 [THz] =    1031.381024 [cm-1]
     freq (   32) =      30.941505 [THz] =    1032.097521 [cm-1]
     freq (   33) =      31.132093 [THz] =    1038.454830 [cm-1]
     freq (   34) =      31.158639 [THz] =    1039.340325 [cm-1]
     freq (   35) =      32.080459 [THz] =    1070.088942 [cm-1]
     freq (   36) =      32.096521 [THz] =    1070.624714 [cm-1]
     freq (   37) =      32.135190 [THz] =    1071.914542 [cm-1]
     freq (   38) =      32.186885 [THz] =    1073.638907 [cm-1]
     freq (   39) =      32.407032 [THz] =    1080.982244 [cm-1]
     freq (   40) =      32.442152 [THz] =    1082.153691 [cm-1]
     freq (   41) =      32.581360 [THz] =    1086.797172 [cm-1]
     freq (   42) =      32.628551 [THz] =    1088.371325 [cm-1]
     freq (   43) =      35.904239 [THz] =    1197.636506 [cm-1]
     freq (   44) =      35.942014 [THz] =    1198.896550 [cm-1]
     freq (   45) =      36.138457 [THz] =    1205.449181 [cm-1]
     freq (   46) =      36.184125 [THz] =    1206.972483 [cm-1]
     freq (   47) =      36.247919 [THz] =    1209.100415 [cm-1]
     freq (   48) =      36.270363 [THz] =    1209.849092 [cm-1]
     freq (   49) =      36.375053 [THz] =    1213.341156 [cm-1]
     freq (   50) =      36.394634 [THz] =    1213.994323 [cm-1]
     freq (   51) =      68.245099 [THz] =    2276.411467 [cm-1]
     freq (   52) =      68.267554 [THz] =    2277.160477 [cm-1]
     freq (   53) =      68.303251 [THz] =    2278.351229 [cm-1]
     freq (   54) =      68.348686 [THz] =    2279.866775 [cm-1]
     freq (   55) =      70.314866 [THz] =    2345.451456 [cm-1]
     freq (   56) =      70.320649 [THz] =    2345.644374 [cm-1]
     freq (   57) =      70.458531 [THz] =    2350.243622 [cm-1]
     freq (   58) =      70.463139 [THz] =    2350.397334 [cm-1]
     freq (   59) =      71.215386 [THz] =    2375.489575 [cm-1]
     freq (   60) =      71.225584 [THz] =    2375.829756 [cm-1]
     freq (   61) =      71.304905 [THz] =    2378.475608 [cm-1]
     freq (   62) =      71.325583 [THz] =    2379.165346 [cm-1]
     freq (   63) =      71.724619 [THz] =    2392.475751 [cm-1]
     freq (   64) =      71.742258 [THz] =    2393.064126 [cm-1]
     freq (   65) =      71.883104 [THz] =    2397.762259 [cm-1]
     freq (   66) =      71.919312 [THz] =    2398.970023 [cm-1]
 **************************************************************************

     Mode symmetry, C_1 (1)     point group:

     freq (   1-   1) =         42.2  [cm-1]   --> A                  
     freq (   2-   2) =         43.8  [cm-1]   --> A                  
     freq (   3-   3) =         63.3  [cm-1]   --> A                  
     freq (   4-   4) =         71.2  [cm-1]   --> A                  
     freq (   5-   5) =         99.5  [cm-1]   --> A                  
     freq (   6-   6) =        103.0  [cm-1]   --> A                  
     freq (   7-   7) =        170.6  [cm-1]   --> A                  
     freq (   8-   8) =        175.3  [cm-1]   --> A                  
     freq (   9-   9) =        202.9  [cm-1]   --> A                  
     freq (  10-  10) =        212.2  [cm-1]   --> A                  
     freq (  11-  11) =        226.2  [cm-1]   --> A                  
     freq (  12-  12) =        226.8  [cm-1]   --> A                  
     freq (  13-  13) =        237.1  [cm-1]   --> A                  
     freq (  14-  14) =        249.1  [cm-1]   --> A                  
     freq (  15-  15) =        264.6  [cm-1]   --> A                  
     freq (  16-  16) =        267.6  [cm-1]   --> A                  
     freq (  17-  17) =        298.4  [cm-1]   --> A                  
     freq (  18-  18) =        300.5  [cm-1]   --> A                  
     freq (  19-  19) =        314.6  [cm-1]   --> A                  
     freq (  20-  20) =        316.1  [cm-1]   --> A                  
     freq (  21-  21) =        337.8  [cm-1]   --> A                  
     freq (  22-  22) =        344.9  [cm-1]   --> A                  
     freq (  23-  23) =        365.4  [cm-1]   --> A                  
     freq (  24-  24) =        366.1  [cm-1]   --> A                  
     freq (  25-  25) =        378.0  [cm-1]   --> A                  
     freq (  26-  26) =        381.0  [cm-1]   --> A                  
     freq (  27-  27) =        465.5  [cm-1]   --> A                  
     freq (  28-  28) =        468.2  [cm-1]   --> A                  
     freq (  29-  29) =        469.1  [cm-1]   --> A                  
     freq (  30-  30) =        472.5  [cm-1]   --> A                  
     freq (  31-  31) =       1031.4  [cm-1]   --> A                  
     freq (  32-  32) =       1032.1  [cm-1]   --> A                  
     freq (  33-  33) =       1038.5  [cm-1]   --> A                  
     freq (  34-  34) =       1039.3  [cm-1]   --> A                  
     freq (  35-  35) =       1070.1  [cm-1]   --> A                  
     freq (  36-  36) =       1070.6  [cm-1]   --> A                  
     freq (  37-  37) =       1071.9  [cm-1]   --> A                  
     freq (  38-  38) =       1073.6  [cm-1]   --> A                  
     freq (  39-  39) =       1081.0  [cm-1]   --> A                  
     freq (  40-  40) =       1082.2  [cm-1]   --> A                  
     freq (  41-  41) =       1086.8  [cm-1]   --> A                  
     freq (  42-  42) =       1088.4  [cm-1]   --> A                  
     freq (  43-  43) =       1197.6  [cm-1]   --> A                  
     freq (  44-  44) =       1198.9  [cm-1]   --> A                  
     freq (  45-  45) =       1205.4  [cm-1]   --> A                  
     freq (  46-  46) =       1207.0  [cm-1]   --> A                  
     freq (  47-  47) =       1209.1  [cm-1]   --> A                  
     freq (  48-  48) =       1209.8  [cm-1]   --> A                  
     freq (  49-  49) =       1213.3  [cm-1]   --> A                  
     freq (  50-  50) =       1214.0  [cm-1]   --> A                  
     freq (  51-  51) =       2276.4  [cm-1]   --> A                  
     freq (  52-  52) =       2277.2  [cm-1]   --> A                  
     freq (  53-  53) =       2278.4  [cm-1]   --> A                  
     freq (  54-  54) =       2279.9  [cm-1]   --> A                  
     freq (  55-  55) =       2345.5  [cm-1]   --> A                  
     freq (  56-  56) =       2345.6  [cm-1]   --> A                  
     freq (  57-  57) =       2350.2  [cm-1]   --> A                  
     freq (  58-  58) =       2350.4  [cm-1]   --> A                  
     freq (  59-  59) =       2375.5  [cm-1]   --> A                  
     freq (  60-  60) =       2375.8  [cm-1]   --> A                  
     freq (  61-  61) =       2378.5  [cm-1]   --> A                  
     freq (  62-  62) =       2379.2  [cm-1]   --> A                  
     freq (  63-  63) =       2392.5  [cm-1]   --> A                  
     freq (  64-  64) =       2393.1  [cm-1]   --> A                  
     freq (  65-  65) =       2397.8  [cm-1]   --> A                  
     freq (  66-  66) =       2399.0  [cm-1]   --> A                  

     init_run     :      8.17s CPU      8.51s WALL (       7 calls)
     electrons    :   4670.95s CPU   4707.04s WALL (       7 calls)

     Called by init_run:
     wfcinit      :      0.00s CPU      0.10s WALL (       7 calls)
     potinit      :      1.00s CPU      1.10s WALL (       7 calls)
     hinit0       :      0.85s CPU      0.88s WALL (       7 calls)

     Called by electrons:
     c_bands      :   4670.95s CPU   4707.04s WALL (       7 calls)
     v_of_rho     :      0.93s CPU      1.00s WALL (       8 calls)
     newd         :      1.41s CPU      1.44s WALL (       8 calls)

     Called by c_bands:
     init_us_2    :   2110.03s CPU   2310.65s WALL (  445179 calls)
     cegterg      :   4280.11s CPU   4310.47s WALL (    2773 calls)

     Called by *egterg:
     cdiaghg      :    145.08s CPU    145.75s WALL (   32285 calls)
     h_psi        : 478232.62s CPU 482777.41s WALL ( 5596808 calls)
     s_psi        : 197601.61s CPU 198442.58s WALL (11501516 calls)
     g_psi        :     11.12s CPU     11.18s WALL (   30895 calls)

     Called by h_psi:
     h_psi:calbec :  83749.56s CPU  84208.56s WALL ( 5596808 calls)
     vloc_psi     : 296370.12s CPU 300036.43s WALL ( 5596808 calls)
     add_vuspsi   :  95908.85s CPU  96326.50s WALL ( 5596808 calls)

     General routines
     calbec       : 182200.33s CPU 183151.21s WALL (12178270 calls)
     fft          :   1099.39s CPU   1162.58s WALL (  102127 calls)
     ffts         :   2967.25s CPU   3004.49s WALL (   92722 calls)
     fftw         : 292132.68s CPU 295892.56s WALL (******** calls)
     interpolate  :     64.08s CPU     74.61s WALL (    7978 calls)
     davcio       :    828.02s CPU   1299.32s WALL ( 1912155 calls)

     Parallel routines

     PHONON       :  10d10h34m CPU  10d13h 3m WALL

     INITIALIZATION: 
     phq_setup    :      2.94s CPU      3.71s WALL (       8 calls)
     phq_init     :   3998.15s CPU   4034.89s WALL (       8 calls)

     phq_init     :   3998.15s CPU   4034.89s WALL (       8 calls)
     set_drhoc    :      0.10s CPU      0.10s WALL (      24 calls)
     init_vloc    :      0.13s CPU      0.14s WALL (       8 calls)
     init_us_1    :      0.18s CPU      0.23s WALL (       8 calls)
     init_us_2    :   2110.03s CPU   2310.65s WALL (  445179 calls)
     newd         :      1.41s CPU      1.44s WALL (       8 calls)
     dvanqq       :    167.56s CPU    169.55s WALL (       8 calls)
     drho         :   3578.03s CPU   3611.33s WALL (       8 calls)
     drhous       :   3251.18s CPU   3278.37s WALL (       8 calls)
     nldyntot     :     83.51s CPU     83.63s WALL (       8 calls)

     DYNAMICAL MATRIX:
     dynmat0      :    197.38s CPU    198.15s WALL (       8 calls)
     dynmat_us    :    152.59s CPU    153.22s WALL (       8 calls)
     addusdynmat  :      0.02s CPU      0.06s WALL (       8 calls)
     d2ionq       :     42.46s CPU     42.50s WALL (       8 calls)
     dynmatcc     :      2.18s CPU      2.26s WALL (       8 calls)
     phqscf       : 889113.86s CPU 897921.57s WALL (       8 calls)
     dynmatrix    :      0.73s CPU      0.87s WALL (       8 calls)

     phqscf       : 889113.86s CPU 897921.57s WALL (       8 calls)
     solve_linter : 883406.01s CPU 892079.84s WALL (     527 calls)
     sth_kernel   : 857340.73s CPU 865062.59s WALL (    3696 calls)
     h_prec       :    683.07s CPU    689.44s WALL (  342109 calls)
     apply_dpot_b :  18167.86s CPU  18612.60s WALL (  295063 calls)
     ortho        :  14483.21s CPU  14591.72s WALL (  342877 calls)
     cgsolve      : 790591.96s CPU 796661.33s WALL (  342877 calls)
     incdrhoscf   :  30320.23s CPU  30890.64s WALL (  342877 calls)
                                        0.00s GPU  (  342877 calls)
     addusddens   :   1295.19s CPU   1312.41s WALL (    4216 calls)
     dv_of_drho   :    355.78s CPU    387.67s WALL (    3719 calls)
     mix_pot      :     40.39s CPU    108.29s WALL (    3696 calls)
     drhodv       :   4219.82s CPU   4260.13s WALL (     527 calls)
     psymdvscf    :   1503.20s CPU   1555.27s WALL (    1743 calls)
     newdq        :   1497.17s CPU   1507.32s WALL (    3696 calls)
     adddvscf     :    993.04s CPU   1012.16s WALL (  295063 calls)
     drhodvus     :     23.14s CPU     45.33s WALL (     527 calls)

     dvqpsi_us    :  23047.95s CPU  23158.15s WALL (   49434 calls)
                                        0.00s GPU  (   49434 calls)
     dvqpsi_us_on :  17098.05s CPU  17140.65s WALL (   49434 calls)

     add_vuspsi   :  95908.85s CPU  96326.50s WALL ( 5596808 calls)
     addusdbec    :   6602.25s CPU   6638.73s WALL (  390529 calls)

     drhodvus     :     23.14s CPU     45.33s WALL (     527 calls)

      General routines
     calbec       : 182200.33s CPU 183151.21s WALL (12178270 calls)
     fft          :   1099.39s CPU   1162.58s WALL (  102127 calls)
     ffts         :   2967.25s CPU   3004.49s WALL (   92722 calls)
     fftw         : 292132.68s CPU 295892.56s WALL (******** calls)
     davcio       :    828.02s CPU   1299.32s WALL ( 1912155 calls)
     write_rec    :     67.87s CPU    677.28s WALL (    4223 calls)

      Additional routines
     ch_psi       : 781092.11s CPU 787036.36s WALL ( 5561750 calls)
     last         : 206712.51s CPU 207725.55s WALL ( 5561750 calls)
     Hesh         :   1348.86s CPU   1362.86s WALL ( 5561750 calls)
     ch_psi_all_k : 205276.82s CPU 206283.93s WALL ( 5561750 calls)
                                        0.00s GPU  ( 5561750 calls)
     ch_psi_calbe :  81402.00s CPU  81734.77s WALL ( 5561750 calls)
                                        0.00s GPU  ( 5561750 calls)
     h_psi_bgrp   : 478279.36s CPU 482815.27s WALL ( 5596808 calls)
     h_psi        : 478232.62s CPU 482777.41s WALL ( 5596808 calls)
     h_psi:pot    : 476156.46s CPU 480667.04s WALL ( 5596808 calls)
     h_psi:calbec :  83749.56s CPU  84208.56s WALL ( 5596808 calls)
     s_psi_bgrp   : 199923.88s CPU 200735.82s WALL (11501516 calls)
     s_psi        : 197601.61s CPU 198442.58s WALL (11501516 calls)


     PHONON       :  10d10h34m CPU  10d13h 3m WALL


   This run was terminated on:   1:23:47  23Jul2024            

=------------------------------------------------------------------------------=
   JOB DONE.
=------------------------------------------------------------------------------=
