
     Program PWSCF v.7.3.1 starts on 12Jul2024 at 12:17:13 

     This program is part of the open-source Quantum ESPRESSO suite
     for quantum simulation of materials; please cite
         "P. Giannozzi et al., J. Phys.:Condens. Matter 21 395502 (2009);
         "P. Giannozzi et al., J. Phys.:Condens. Matter 29 465901 (2017);
         "P. Giannozzi et al., J. Chem. Phys. 152 154105 (2020);
          URL http://www.quantum-espresso.org", 
     in publications or presentations arising from this work. More details at
     http://www.quantum-espresso.org/quote

     Parallel version (MPI), running on    24 processors

     MPI processes distributed on     1 nodes
     94359 MiB available memory on the printing compute node when the environment starts

     Waiting for input...
     Reading input from standard input

     Current dimensions of program PWSCF are:
     Max number of different atomic species (ntypx) = 10
     Max number of k-points (npk) =  40000
     Max angular momentum in pseudopotentials (lmaxx) =  4

     R & G space division:  proc/nbgrp/npool/nimage =      24
     Subspace diagonalization in iterative solution of the eigenvalue problem:
     a serial algorithm will be used


     Parallelization info
     --------------------
     sticks:   dense  smooth     PW     G-vecs:    dense   smooth      PW
     Min         419     210     56                21915     7750    1089
     Max         420     211     58                21918     7753    1091
     Sum       10077    5043   1367               525991   186049   26171

     Using Slab Decomposition


     Title: 
     pre-ph                                                                     


     bravais-lattice index     =            8
     lattice parameter (alat)  =      12.3594  a.u.
     unit-cell volume          =    1377.0263 (a.u.)^3
     number of atoms/cell      =           22
     number of atomic types    =            3
     number of electrons       =        48.00
     number of Kohn-Sham states=           24
     kinetic-energy cutoff     =     100.0000  Ry
     charge density cutoff     =     800.0000  Ry
     scf convergence threshold =      1.0E-10
     mixing beta               =       0.7000
     number of iterations used =            8  plain     mixing
     Exchange-correlation= PBESOL
                           (   1   4  10   8   0   0   0)

     celldm(1)=  12.359418  celldm(2)=   1.036216  celldm(3)=   0.703879
     celldm(4)=   0.000000  celldm(5)=   0.000000  celldm(6)=   0.000000

     crystal axes: (cart. coord. in units of alat)
               a(1) = (   1.000000   0.000000   0.000000 )  
               a(2) = (   0.000000   1.036216   0.000000 )  
               a(3) = (   0.000000   0.000000   0.703879 )  

     reciprocal axes: (cart. coord. in units 2 pi/alat)
               b(1) = (  1.000000  0.000000  0.000000 )  
               b(2) = (  0.000000  0.965050  0.000000 )  
               b(3) = (  0.000000  0.000000  1.420699 )  


     PseudoPot. # 1 for B  read from file:
     /home/mehlhorn/pseudos/b_pbesol_v1.4.uspp.F.UPF
     MD5 check sum: 369b69bef2c3aeed4453bd8b804fd6a8
     Pseudo is Ultrasoft + core correction, Zval =  3.0
     Generated by new atomic code, or converted to UPF format
     Using radial grid of  781 points,  4 beta functions with: 
                l(1) =   0
                l(2) =   0
                l(3) =   1
                l(4) =   1
     Q(r) pseudized with  8 coefficients,  rinner =    1.100   1.100   1.100


     PseudoPot. # 2 for Ba read from file:
     /home/mehlhorn/pseudos/Ba.nc.z_10.oncvpsp4.dojo.v4-sp.upf
     MD5 check sum: c10ed334bb677c0554edec7181ce9143
     Pseudo is Norm-conserving + core correction, Zval = 10.0
     Generated using ONCVPSP code by D. R. Hamann
     Using radial grid of 1938 points,  8 beta functions with: 
                l(1) =   0
                l(2) =   0
                l(3) =   1
                l(4) =   1
                l(5) =   2
                l(6) =   2
                l(7) =   3
                l(8) =   3

     PseudoPot. # 3 for H  read from file:
     /home/mehlhorn/pseudos/H_ONCV_PBEsol-1.0.upf
     MD5 check sum: 398ef8f67c0a7342c05c87c5e19ea467
     Pseudo is Norm-conserving, Zval =  1.0
     Generated using ONCVPSP code by D. R. Hamann
     Using radial grid of 1180 points,  2 beta functions with: 
                l(1) =   0
                l(2) =   0

     atomic species   valence    mass     pseudopotential
     B                 3.00    10.81100     B ( 1.00)
     Ba               10.00   137.32700     Ba( 1.00)
     H                 1.00     1.00794     H ( 1.00)

      4 Sym. Ops. (no inversion) found ( 2 have fractional translation)



   Cartesian axes

     site n.     atom                  positions (alat units)
         1        Ba     tau(   1) = (   0.5000000   0.5181081   0.3519403  )
         2        Ba     tau(   2) = (   0.0000000   0.0000000   0.7038778  )
         3        B      tau(   3) = (   0.6053315   0.2446057  -0.0000020  )
         4        B      tau(   4) = (   0.3946685   0.7916104  -0.0000020  )
         5        B      tau(   5) = (   0.1053315   0.2735023   0.3519414  )
         6        B      tau(   6) = (   0.8946685   0.7627138   0.3519414  )
         7        H      tau(   7) = (   0.4269074   0.3038844  -0.0000062  )
         8        H      tau(   8) = (   0.5730926   0.7323317  -0.0000062  )
         9        H      tau(   9) = (   0.9269074   0.2142237   0.3519456  )
        10        H      tau(  10) = (   0.0730926   0.8219924   0.3519456  )
        11        H      tau(  11) = (   0.7228105   0.3932128   0.0000142  )
        12        H      tau(  12) = (   0.2771895   0.6430034   0.0000142  )
        13        H      tau(  13) = (   0.2228105   0.1248953   0.3519252  )
        14        H      tau(  14) = (   0.7771895   0.9113208   0.3519252  )
        15        H      tau(  15) = (   0.6329964   0.1424585   0.5487976  )
        16        H      tau(  16) = (   0.3670036   0.8937576   0.5487976  )
        17        H      tau(  17) = (   0.1329964   0.3756496   0.5070205  )
        18        H      tau(  18) = (   0.8670036   0.6605665   0.5070205  )
        19        H      tau(  19) = (   0.3670225   0.8937511   0.1550823  )
        20        H      tau(  20) = (   0.6329775   0.1424650   0.1550823  )
        21        H      tau(  21) = (   0.8670225   0.6605731   0.1968571  )
        22        H      tau(  22) = (   0.1329775   0.3756430   0.1968571  )

     number of k points=    27
                       cart. coord. in units 2pi/alat
        k(    1) = (   0.0000000   0.0000000   0.0000000), wk =   0.0160000
        k(    2) = (   0.0000000   0.0000000   0.2841398), wk =   0.0320000
        k(    3) = (   0.0000000   0.0000000   0.5682797), wk =   0.0320000
        k(    4) = (   0.0000000   0.1930099   0.0000000), wk =   0.0320000
        k(    5) = (   0.0000000   0.1930099   0.2841398), wk =   0.0640000
        k(    6) = (   0.0000000   0.1930099   0.5682797), wk =   0.0640000
        k(    7) = (   0.0000000   0.3860199   0.0000000), wk =   0.0320000
        k(    8) = (   0.0000000   0.3860199   0.2841398), wk =   0.0640000
        k(    9) = (   0.0000000   0.3860199   0.5682797), wk =   0.0640000
        k(   10) = (   0.2000000   0.0000000   0.0000000), wk =   0.0320000
        k(   11) = (   0.2000000   0.0000000   0.2841398), wk =   0.0640000
        k(   12) = (   0.2000000   0.0000000   0.5682797), wk =   0.0640000
        k(   13) = (   0.2000000   0.1930099   0.0000000), wk =   0.0640000
        k(   14) = (   0.2000000   0.1930099   0.2841398), wk =   0.1280000
        k(   15) = (   0.2000000   0.1930099   0.5682797), wk =   0.1280000
        k(   16) = (   0.2000000   0.3860199   0.0000000), wk =   0.0640000
        k(   17) = (   0.2000000   0.3860199   0.2841398), wk =   0.1280000
        k(   18) = (   0.2000000   0.3860199   0.5682797), wk =   0.1280000
        k(   19) = (   0.4000000   0.0000000   0.0000000), wk =   0.0320000
        k(   20) = (   0.4000000   0.0000000   0.2841398), wk =   0.0640000
        k(   21) = (   0.4000000   0.0000000   0.5682797), wk =   0.0640000
        k(   22) = (   0.4000000   0.1930099   0.0000000), wk =   0.0640000
        k(   23) = (   0.4000000   0.1930099   0.2841398), wk =   0.1280000
        k(   24) = (   0.4000000   0.1930099   0.5682797), wk =   0.1280000
        k(   25) = (   0.4000000   0.3860199   0.0000000), wk =   0.0640000
        k(   26) = (   0.4000000   0.3860199   0.2841398), wk =   0.1280000
        k(   27) = (   0.4000000   0.3860199   0.5682797), wk =   0.1280000

     Dense  grid:   525991 G-vectors     FFT dimensions: ( 120, 120,  80)

     Smooth grid:   186049 G-vectors     FFT dimensions: (  80,  90,  60)

     Estimated max dynamical RAM per process >      64.86 MB

     Estimated total dynamical RAM >       1.52 GB

     Initial potential from superposition of free atoms

     starting charge      47.9682, renormalised to      48.0000
     Starting wfcs are   42 randomized atomic wfcs

     total cpu time spent up to now is       10.9 secs

     Self-consistent Calculation

     iteration #  1     ecut=   100.00 Ry     beta= 0.70
     Davidson diagonalization with overlap
     ethr =  1.00E-02,  avg # of iterations =  2.0

     total cpu time spent up to now is       24.9 secs

     total energy              =    -155.93384299 Ry
     estimated scf accuracy    <       2.05730643 Ry

     iteration #  2     ecut=   100.00 Ry     beta= 0.70
     Davidson diagonalization with overlap
     ethr =  4.29E-03,  avg # of iterations =  2.0

     total cpu time spent up to now is       38.3 secs

     total energy              =    -156.40953237 Ry
     estimated scf accuracy    <       0.36309454 Ry

     iteration #  3     ecut=   100.00 Ry     beta= 0.70
     Davidson diagonalization with overlap
     ethr =  7.56E-04,  avg # of iterations =  2.0

     total cpu time spent up to now is       51.7 secs

     total energy              =    -156.46992048 Ry
     estimated scf accuracy    <       0.00485017 Ry

     iteration #  4     ecut=   100.00 Ry     beta= 0.70
     Davidson diagonalization with overlap
     ethr =  1.01E-05,  avg # of iterations =  5.1

     total cpu time spent up to now is       71.3 secs

     total energy              =    -156.47307750 Ry
     estimated scf accuracy    <       0.00164301 Ry

     iteration #  5     ecut=   100.00 Ry     beta= 0.70
     Davidson diagonalization with overlap
     ethr =  3.42E-06,  avg # of iterations =  3.3

     total cpu time spent up to now is       85.1 secs

     total energy              =    -156.47365029 Ry
     estimated scf accuracy    <       0.00016517 Ry

     iteration #  6     ecut=   100.00 Ry     beta= 0.70
     Davidson diagonalization with overlap
     ethr =  3.44E-07,  avg # of iterations =  4.1

     total cpu time spent up to now is      100.7 secs

     total energy              =    -156.47371104 Ry
     estimated scf accuracy    <       0.00000155 Ry

     iteration #  7     ecut=   100.00 Ry     beta= 0.70
     Davidson diagonalization with overlap
     ethr =  3.23E-09,  avg # of iterations =  8.4

     total cpu time spent up to now is      130.0 secs

     total energy              =    -156.47372068 Ry
     estimated scf accuracy    <       0.00000110 Ry

     iteration #  8     ecut=   100.00 Ry     beta= 0.70
     Davidson diagonalization with overlap
     ethr =  2.29E-09,  avg # of iterations =  2.5

     total cpu time spent up to now is      143.6 secs

     total energy              =    -156.47372098 Ry
     estimated scf accuracy    <       0.00000006 Ry

     iteration #  9     ecut=   100.00 Ry     beta= 0.70
     Davidson diagonalization with overlap
     ethr =  1.16E-10,  avg # of iterations =  4.8

     total cpu time spent up to now is      159.7 secs

     total energy              =    -156.47372100 Ry
     estimated scf accuracy    <          4.2E-09 Ry

     iteration # 10     ecut=   100.00 Ry     beta= 0.70
     Davidson diagonalization with overlap
     ethr =  8.74E-12,  avg # of iterations =  4.3

     total cpu time spent up to now is      176.8 secs

     total energy              =    -156.47372100 Ry
     estimated scf accuracy    <          1.3E-09 Ry

     iteration # 11     ecut=   100.00 Ry     beta= 0.70
     Davidson diagonalization with overlap
     ethr =  2.62E-12,  avg # of iterations =  2.9

     total cpu time spent up to now is      190.3 secs

     End of self-consistent calculation

          k = 0.0000 0.0000 0.0000 ( 23281 PWs)   bands (ev):

   -23.4210 -23.4091  -9.0542  -8.9395  -8.7078  -8.6639  -8.6438  -8.5648
    -5.8190  -4.7875  -3.9805  -3.8108  -1.5302  -0.5827  -0.4619  -0.1285
     0.3093   0.3366   0.3854   0.5487   0.6272   1.1370   1.1436   1.1877

          k = 0.0000 0.0000 0.2841 ( 23286 PWs)   bands (ev):

   -23.4147 -23.4051  -8.9800  -8.8892  -8.8494  -8.8101  -8.6925  -8.6630
    -5.4347  -4.5792  -4.1173  -3.9941  -1.2389  -0.7417  -0.4174  -0.1633
    -0.0839   0.0444   0.3688   0.6119   0.9788   0.9825   1.0303   1.2203

          k = 0.0000 0.0000 0.5683 ( 23278 PWs)   bands (ev):

   -23.4033 -23.3996  -9.1369  -9.1300  -8.8244  -8.7887  -8.6911  -8.6818
    -4.7449  -4.3873  -4.3356  -4.2980  -0.9807  -0.8762  -0.6624  -0.6538
    -0.0049   0.1396   0.4618   0.5421   0.9077   0.9809   1.1052   1.1485

          k = 0.0000 0.1930 0.0000 ( 23245 PWs)   bands (ev):

   -23.4199 -23.4102  -9.0324  -8.9153  -8.7556  -8.6921  -8.6361  -8.5721
    -5.6682  -4.7088  -4.2162  -3.9176  -1.2462  -0.6405  -0.6116   0.1293
     0.2054   0.2184   0.5293   0.6794   0.7371   0.9093   1.0743   1.1260

          k = 0.0000 0.1930 0.2841 ( 23238 PWs)   bands (ev):

   -23.4138 -23.4060  -8.9800  -8.8772  -8.8367  -8.8254  -8.6940  -8.6833
    -5.3305  -4.5576  -4.2459  -4.0543  -1.0595  -0.7745  -0.5831   0.0320
     0.0540   0.1360   0.1716   0.7266   0.9200   0.9721   1.0004   1.0927

          k = 0.0000 0.1930 0.5683 ( 23258 PWs)   bands (ev):

   -23.4030 -23.4000  -9.1511  -9.1441  -8.7957  -8.7735  -8.6909  -8.6890
    -4.8501  -4.6694  -4.1612  -4.0767  -0.9222  -0.8929  -0.7722  -0.5475
     0.1376   0.2538   0.3991   0.5573   0.8239   0.9534   0.9890   1.1208

          k = 0.0000 0.3860 0.0000 ( 23190 PWs)   bands (ev):

   -23.4169 -23.4132  -8.9666  -8.8694  -8.8425  -8.7636  -8.6160  -8.5915
    -5.2707  -4.7531  -4.4595  -4.1772  -0.7910  -0.7416  -0.5065   0.1009
     0.1059   0.2407   0.5207   0.7651   0.8195   0.8437   0.9147   1.0391

          k = 0.0000 0.3860 0.2841 ( 23250 PWs)   bands (ev):

   -23.4113 -23.4084  -8.9625  -8.9157  -8.8124  -8.7827  -8.7281  -8.7148
    -5.0522  -4.7007  -4.3315  -4.1960  -0.8010  -0.7624  -0.6125  -0.1849
     0.2384   0.3282   0.4004   0.6195   0.7557   0.8131   1.0190   1.0240

          k = 0.0000 0.3860 0.5683 ( 23285 PWs)   bands (ev):

   -23.4020 -23.4009  -9.1696  -9.1663  -8.7435  -8.7435  -8.7075  -8.7001
    -4.9449  -4.8861  -3.9803  -3.9337  -0.9873  -0.9664  -0.5623  -0.3628
     0.2283   0.2644   0.4333   0.5318   0.7338   0.7708   0.9597   1.0512

          k = 0.2000 0.0000 0.0000 ( 23261 PWs)   bands (ev):

   -23.4198 -23.4102  -9.0234  -8.9288  -8.7436  -8.7106  -8.6361  -8.5721
    -5.6706  -4.7897  -4.0140  -3.9432  -1.3965  -0.4165  -0.3579  -0.3211
     0.3089   0.3748   0.4806   0.5346   0.6318   0.7737   1.1460   1.1526

          k = 0.2000 0.0000 0.2841 ( 23251 PWs)   bands (ev):

   -23.4138 -23.4060  -8.9588  -8.9247  -8.8374  -8.8035  -8.7165  -8.6681
    -5.3090  -4.5621  -4.1483  -4.1067  -1.1429  -0.7939  -0.4077  -0.2278
    -0.0755   0.1634   0.4806   0.6562   0.7241   0.9266   1.1301   1.1752

          k = 0.2000 0.0000 0.5683 ( 23243 PWs)   bands (ev):

   -23.4029 -23.4000  -9.1553  -9.1493  -8.8056  -8.7680  -8.6982  -8.6827
    -4.6970  -4.4516  -4.3277  -4.2442  -1.2959  -1.0864  -0.6026  -0.2921
     0.0440   0.3752   0.4315   0.6665   0.8245   0.9416   1.0353   1.1381

          k = 0.2000 0.1930 0.0000 ( 23254 PWs)   bands (ev):

   -23.4189 -23.4111  -9.0377  -8.8750  -8.8361  -8.6733  -8.6297  -8.5779
    -5.5511  -4.7273  -4.2526  -3.9794  -1.1509  -0.5987  -0.4618  -0.0009
     0.1698   0.2271   0.6540   0.6601   0.7398   0.7657   0.9212   1.1095

          k = 0.2000 0.1930 0.2841 ( 23248 PWs)   bands (ev):

   -23.4130 -23.4067  -8.9713  -8.9116  -8.8611  -8.7807  -8.7240  -8.6679
    -5.2197  -4.5273  -4.3098  -4.1188  -1.0172  -0.7803  -0.5764  -0.0851
     0.0460   0.2075   0.3956   0.6566   0.7731   0.8929   1.0392   1.1395

          k = 0.2000 0.1930 0.5683 ( 23269 PWs)   bands (ev):

   -23.4026 -23.4002  -9.1675  -9.1376  -8.8208  -8.7389  -8.7061  -8.6870
    -4.8071  -4.5761  -4.2634  -4.0630  -1.2487  -1.0804  -0.5461  -0.3108
     0.1049   0.3230   0.4646   0.6415   0.8099   0.9138   0.9882   1.1177

          k = 0.2000 0.3860 0.0000 ( 23216 PWs)   bands (ev):

   -23.4165 -23.4135  -9.0213  -8.9490  -8.7786  -8.6985  -8.6133  -8.5935
    -5.2270  -4.8075  -4.4195  -4.1871  -0.7105  -0.6884  -0.4432   0.0630
     0.0852   0.1961   0.4192   0.7877   0.8380   0.8760   0.8796   0.9206

          k = 0.2000 0.3860 0.2841 ( 23241 PWs)   bands (ev):

   -23.4110 -23.4086  -8.9724  -8.9410  -8.8380  -8.7849  -8.7133  -8.6796
    -4.9781  -4.6581  -4.3777  -4.2359  -0.8820  -0.7751  -0.5070  -0.1656
     0.2604   0.2969   0.4109   0.6187   0.6886   0.8228   1.0089   1.0441

          k = 0.2000 0.3860 0.5683 ( 23269 PWs)   bands (ev):

   -23.4019 -23.4010  -9.1642  -9.1463  -8.8015  -8.7541  -8.7004  -8.6897
    -4.8708  -4.7858  -4.0592  -3.9762  -1.1581  -1.0927  -0.4166  -0.3039
     0.1430   0.2808   0.4408   0.5873   0.8137   0.8936   0.9438   1.0430

          k = 0.4000 0.0000 0.0000 ( 23250 PWs)   bands (ev):

   -23.4168 -23.4131  -8.9407  -8.8880  -8.8340  -8.8072  -8.6159  -8.5915
    -5.3063  -4.9318  -4.1106  -4.0894  -1.0645  -0.6728  -0.2079   0.1546
     0.2258   0.3262   0.3846   0.4693   0.5745   0.6271   0.9415   1.0474

          k = 0.4000 0.0000 0.2841 ( 23238 PWs)   bands (ev):

   -23.4113 -23.4083  -8.9437  -8.9319  -8.8544  -8.7925  -8.7334  -8.6919
    -4.9911  -4.6507  -4.2623  -4.2215  -0.9669  -0.7429  -0.6258  -0.2322
     0.1057   0.3667   0.3855   0.4670   0.7559   0.8766   1.1164   1.1306

          k = 0.4000 0.0000 0.5683 ( 23275 PWs)   bands (ev):

   -23.4020 -23.4008  -9.1812  -9.1786  -8.7672  -8.7408  -8.7094  -8.6918
    -4.6088  -4.5342  -4.2791  -4.2217  -1.5034  -1.4180  -0.2701  -0.0599
     0.1599   0.2988   0.5033   0.5928   0.9111   0.9426   1.0333   1.1235

          k = 0.4000 0.1930 0.0000 ( 23275 PWs)   bands (ev):

   -23.4164 -23.4135  -9.0182  -8.9470  -8.7903  -8.7090  -8.6132  -8.5934
    -5.2538  -4.9144  -4.2297  -4.1067  -0.9094  -0.6633  -0.1287   0.0423
     0.1561   0.1879   0.3053   0.5600   0.6960   0.7539   0.8960   1.0183

          k = 0.4000 0.1930 0.2841 ( 23242 PWs)   bands (ev):

   -23.4110 -23.4086  -8.9680  -8.9468  -8.8529  -8.7953  -8.7098  -8.6759
    -4.9396  -4.6235  -4.3505  -4.2403  -0.9476  -0.7799  -0.5547  -0.1845
     0.1061   0.3378   0.4452   0.5804   0.7001   0.8451   1.0419   1.1042

          k = 0.4000 0.1930 0.5683 ( 23258 PWs)   bands (ev):

   -23.4018 -23.4009  -9.1720  -9.1545  -8.8053  -8.7584  -8.6997  -8.6897
    -4.6746  -4.5064  -4.3082  -4.1397  -1.4375  -1.3680  -0.2737  -0.1480
     0.1561   0.2681   0.4990   0.6609   0.8589   0.9445   1.0324   1.1198

          k = 0.4000 0.3860 0.0000 ( 23242 PWs)   bands (ev):

   -23.4155 -23.4144  -9.0631  -9.0376  -8.6942  -8.6609  -8.6065  -8.5990
    -5.1089  -4.9498  -4.3185  -4.2289  -0.6006  -0.5814  -0.2471   0.0096
     0.0241   0.0360   0.3869   0.6239   0.7892   0.8380   0.8881   0.9105

          k = 0.4000 0.3860 0.2841 ( 23243 PWs)   bands (ev):

   -23.4102 -23.4093  -8.9916  -8.9817  -8.8336  -8.8098  -8.6734  -8.6602
    -4.8010  -4.6378  -4.4261  -4.3327  -0.8977  -0.8245  -0.4387  -0.2798
     0.3082   0.4649   0.4974   0.6183   0.6516   0.8136   0.8968   0.9727

          k = 0.4000 0.3860 0.5683 ( 23260 PWs)   bands (ev):

   -23.4015 -23.4012  -9.1397  -9.1259  -8.8393  -8.8123  -8.6906  -8.6894
    -4.6873  -4.6136  -4.1892  -4.1139  -1.2931  -1.2643  -0.4207  -0.4042
     0.3073   0.4539   0.5851   0.6321   0.8018   0.8320   1.0119   1.0582

     highest occupied level (ev):     1.2203

!    total energy              =    -156.47372100 Ry
     estimated scf accuracy    <          7.0E-11 Ry

     The total energy is the sum of the following terms:
     one-electron contribution =     -17.98529964 Ry
     hartree contribution      =      24.07098978 Ry
     xc contribution           =     -49.21155575 Ry
     ewald contribution        =    -113.34785539 Ry

     convergence has been achieved in  11 iterations

     Writing all to output data dir ./pwscf.save/ :
     XML data file, charge density, pseudopotentials, collected wavefunctions

     init_run     :      8.82s CPU     10.52s WALL (       1 calls)
     electrons    :    178.06s CPU    179.54s WALL (       1 calls)

     Called by init_run:
     wfcinit      :      6.33s CPU      6.40s WALL (       1 calls)
     potinit      :      0.67s CPU      1.35s WALL (       1 calls)
     hinit0       :      0.99s CPU      1.91s WALL (       1 calls)

     Called by electrons:
     c_bands      :    157.36s CPU    158.37s WALL (      11 calls)
     sum_band     :     17.15s CPU     17.45s WALL (      11 calls)
     v_of_rho     :      1.50s CPU      1.56s WALL (      12 calls)
     newd         :      1.98s CPU      2.01s WALL (      12 calls)
     mix_rho      :      0.19s CPU      0.22s WALL (      11 calls)

     Called by c_bands:
     init_us_2    :      3.57s CPU      3.64s WALL (     621 calls)
     cegterg      :    139.35s CPU    140.33s WALL (     297 calls)

     Called by *egterg:
     cdiaghg      :      2.72s CPU      2.73s WALL (    1416 calls)
     h_psi        :     97.35s CPU     98.23s WALL (    1443 calls)
     s_psi        :     20.35s CPU     20.42s WALL (    1443 calls)
     g_psi        :      0.43s CPU      0.43s WALL (    1119 calls)

     Called by h_psi:
     h_psi:calbec :     17.95s CPU     18.03s WALL (    1443 calls)
     vloc_psi     :     58.62s CPU     59.35s WALL (    1443 calls)
     add_vuspsi   :     20.41s CPU     20.50s WALL (    1443 calls)

     General routines
     calbec       :     22.95s CPU     23.04s WALL (    1740 calls)
     fft          :      1.61s CPU      2.61s WALL (     154 calls)
     ffts         :      0.56s CPU      1.22s WALL (      23 calls)
     fftw         :     56.65s CPU     57.32s WALL (   57062 calls)
     interpolate  :      0.61s CPU      1.28s WALL (      12 calls)

     Parallel routines

     PWSCF        :   3m 7.75s CPU   3m11.56s WALL


   This run was terminated on:  12:20:25  12Jul2024            

=------------------------------------------------------------------------------=
   JOB DONE.
=------------------------------------------------------------------------------=
