
     Program Q2R v.7.3.1 starts on 23Jul2024 at  1:23:48 

     This program is part of the open-source Quantum ESPRESSO suite
     for quantum simulation of materials; please cite
         "P. Giannozzi et al., J. Phys.:Condens. Matter 21 395502 (2009);
         "P. Giannozzi et al., J. Phys.:Condens. Matter 29 465901 (2017);
         "P. Giannozzi et al., J. Chem. Phys. 152 154105 (2020);
          URL http://www.quantum-espresso.org", 
     in publications or presentations arising from this work. More details at
     http://www.quantum-espresso.org/quote

     Parallel version (MPI), running on    24 processors

     MPI processes distributed on     1 nodes
     R & G space division:  proc/nbgrp/npool/nimage =      24
     71836 MiB available memory on the printing compute node when the environment starts


  reading grid info from file dyn0    

  reading force constants from file dyn1
 macroscopic fields = T
   3.21093   0.00000   0.00000
   0.00000   3.27382   0.00000
   0.00000   0.00000   3.39483
  na=            1
   2.51900  -0.03869   0.00000
   0.28792   2.53597   0.00000
   0.00000   0.00000   2.95303
  na=            2
   2.51900   0.03869   0.00000
  -0.28792   2.53597   0.00000
   0.00000   0.00000   2.95303
  na=            3
  -0.15161   0.03244  -0.00002
   0.17474  -0.05125   0.00005
   0.00001   0.00004  -0.20331
  na=            4
  -0.15161   0.03244   0.00002
   0.17474  -0.05125  -0.00005
  -0.00001  -0.00004  -0.20331
  na=            5
  -0.15161  -0.03244   0.00002
  -0.17474  -0.05125   0.00005
  -0.00001   0.00004  -0.20331
  na=            6
  -0.15161  -0.03244  -0.00002
  -0.17474  -0.05125  -0.00005
   0.00001  -0.00004  -0.20331
  na=            7
  -0.42227   0.13179  -0.00000
   0.13973  -0.25481  -0.00000
  -0.00002   0.00000  -0.24566
  na=            8
  -0.42227   0.13179   0.00000
   0.13973  -0.25481   0.00000
   0.00002  -0.00000  -0.24566
  na=            9
  -0.42227  -0.13179   0.00000
  -0.13973  -0.25481  -0.00000
   0.00002   0.00000  -0.24566
  na=           10
  -0.42227  -0.13179  -0.00000
  -0.13973  -0.25481   0.00000
  -0.00002  -0.00000  -0.24566
  na=           11
  -0.27973  -0.04642   0.00001
  -0.11319  -0.42774  -0.00005
   0.00001  -0.00003  -0.24439
  na=           12
  -0.27973  -0.04642  -0.00001
  -0.11319  -0.42774   0.00005
  -0.00001   0.00003  -0.24439
  na=           13
  -0.27973   0.04642  -0.00001
   0.11319  -0.42774  -0.00005
  -0.00001  -0.00003  -0.24439
  na=           14
  -0.27973   0.04642   0.00001
   0.11319  -0.42774   0.00005
   0.00001   0.00003  -0.24439
  na=           15
  -0.20311   0.14410   0.05696
   0.09480  -0.26657  -0.08995
   0.01728  -0.10902  -0.39135
  na=           16
  -0.20311   0.14410  -0.05696
   0.09480  -0.26657   0.08995
  -0.01728   0.10902  -0.39135
  na=           17
  -0.20311  -0.14410  -0.05696
  -0.09480  -0.26657  -0.08995
  -0.01728  -0.10902  -0.39135
  na=           18
  -0.20311  -0.14410   0.05696
  -0.09480  -0.26657   0.08995
   0.01728   0.10902  -0.39135
  na=           19
  -0.20308   0.14408   0.05693
   0.09478  -0.26658  -0.08996
   0.01726  -0.10901  -0.39142
  na=           20
  -0.20308   0.14408  -0.05693
   0.09478  -0.26658   0.08996
  -0.01726   0.10901  -0.39142
  na=           21
  -0.20308  -0.14408  -0.05693
  -0.09478  -0.26658  -0.08996
  -0.01726  -0.10901  -0.39142
  na=           22
  -0.20308  -0.14408   0.05693
  -0.09478  -0.26658   0.08996
   0.01726   0.10901  -0.39142
  Norm of the difference between old and new effective charges:    0.00097285240449027099
  nqs=            1
 q=   0.00000000  0.00000000  0.00000000
  reading force constants from file dyn2
  nqs=            2
 q=   0.00000000  0.00000000  0.47356641
 q=   0.00000000  0.00000000 -0.47356641
  reading force constants from file dyn3
  nqs=            2
 q=   0.00000000  0.32168322  0.00000000
 q=   0.00000000 -0.32168322  0.00000000
  reading force constants from file dyn4
  nqs=            4
 q=   0.00000000  0.32168322  0.47356641
 q=   0.00000000  0.32168322 -0.47356641
 q=   0.00000000 -0.32168322 -0.47356641
 q=   0.00000000 -0.32168322  0.47356641
  reading force constants from file dyn5
  nqs=            2
 q=   0.33333333  0.00000000  0.00000000
 q=  -0.33333333  0.00000000  0.00000000
  reading force constants from file dyn6
  nqs=            4
 q=   0.33333333  0.00000000  0.47356641
 q=   0.33333333  0.00000000 -0.47356641
 q=  -0.33333333  0.00000000 -0.47356641
 q=  -0.33333333  0.00000000  0.47356641
  reading force constants from file dyn7
  nqs=            4
 q=   0.33333333  0.32168322  0.00000000
 q=   0.33333333 -0.32168322  0.00000000
 q=  -0.33333333  0.32168322  0.00000000
 q=  -0.33333333 -0.32168322  0.00000000
  reading force constants from file dyn8
  nqs=            8
 q=   0.33333333  0.32168322  0.47356641
 q=  -0.33333333 -0.32168322 -0.47356641
 q=   0.33333333 -0.32168322 -0.47356641
 q=  -0.33333333  0.32168322  0.47356641
 q=  -0.33333333  0.32168322 -0.47356641
 q=   0.33333333 -0.32168322  0.47356641
 q=  -0.33333333 -0.32168322  0.47356641
 q=   0.33333333  0.32168322 -0.47356641

      q-space grid ok, #points =   27

      fft-check success (sum of imaginary terms < 10^-12)

     Q2R          :      3.02s CPU      3.08s WALL


   This run was terminated on:   1:23:51  23Jul2024            

=------------------------------------------------------------------------------=
   JOB DONE.
=------------------------------------------------------------------------------=
