
     Program PWSCF v.7.3.1 starts on 12Jul2024 at 14:14: 7 

     This program is part of the open-source Quantum ESPRESSO suite
     for quantum simulation of materials; please cite
         "P. Giannozzi et al., J. Phys.:Condens. Matter 21 395502 (2009);
         "P. Giannozzi et al., J. Phys.:Condens. Matter 29 465901 (2017);
         "P. Giannozzi et al., J. Chem. Phys. 152 154105 (2020);
          URL http://www.quantum-espresso.org", 
     in publications or presentations arising from this work. More details at
     http://www.quantum-espresso.org/quote

     Parallel version (MPI), running on    24 processors

     MPI processes distributed on     1 nodes
     126802 MiB available memory on the printing compute node when the environment starts

     Waiting for input...
     Reading input from standard input

     Current dimensions of program PWSCF are:
     Max number of different atomic species (ntypx) = 10
     Max number of k-points (npk) =  40000
     Max angular momentum in pseudopotentials (lmaxx) =  4

     R & G space division:  proc/nbgrp/npool/nimage =      24
     Subspace diagonalization in iterative solution of the eigenvalue problem:
     a serial algorithm will be used


     Parallelization info
     --------------------
     sticks:   dense  smooth     PW     G-vecs:    dense   smooth      PW
     Min         421     210     57                21812     7706    1115
     Max         422     211     58                21814     7709    1118
     Sum       10123    5059   1391               523515   184993   26827

     Using Slab Decomposition


     Title: 
     volume variation                                                           


     bravais-lattice index     =            8
     lattice parameter (alat)  =      12.4487  a.u.
     unit-cell volume          =    1369.8915 (a.u.)^3
     number of atoms/cell      =           22
     number of atomic types    =            3
     number of electrons       =        48.00
     number of Kohn-Sham states=           24
     kinetic-energy cutoff     =     100.0000  Ry
     charge density cutoff     =     800.0000  Ry
     scf convergence threshold =      1.0E-10
     mixing beta               =       0.7000
     number of iterations used =            8  plain     mixing
     energy convergence thresh.=      1.0E-05
     force convergence thresh. =      1.0E-05
     press convergence thresh. =      5.0E-01
     Exchange-correlation= PBESOL
                           (   1   4  10   8   0   0   0)
     nstep                     =          300


     celldm(1)=  12.448653  celldm(2)=   1.025571  celldm(3)=   0.692394
     celldm(4)=   0.000000  celldm(5)=   0.000000  celldm(6)=   0.000000

     crystal axes: (cart. coord. in units of alat)
               a(1) = (   1.000000   0.000000   0.000000 )  
               a(2) = (   0.000000   1.025571   0.000000 )  
               a(3) = (   0.000000   0.000000   0.692394 )  

     reciprocal axes: (cart. coord. in units 2 pi/alat)
               b(1) = (  1.000000  0.000000  0.000000 )  
               b(2) = (  0.000000  0.975067  0.000000 )  
               b(3) = (  0.000000  0.000000  1.444264 )  


     PseudoPot. # 1 for B  read from file:
     /home/mehlhorn/pseudos/b_pbesol_v1.4.uspp.F.UPF
     MD5 check sum: 369b69bef2c3aeed4453bd8b804fd6a8
     Pseudo is Ultrasoft + core correction, Zval =  3.0
     Generated by new atomic code, or converted to UPF format
     Using radial grid of  781 points,  4 beta functions with: 
                l(1) =   0
                l(2) =   0
                l(3) =   1
                l(4) =   1
     Q(r) pseudized with  8 coefficients,  rinner =    1.100   1.100   1.100


     PseudoPot. # 2 for Ba read from file:
     /home/mehlhorn/pseudos/Ba.nc.z_10.oncvpsp4.dojo.v4-sp.upf
     MD5 check sum: c10ed334bb677c0554edec7181ce9143
     Pseudo is Norm-conserving + core correction, Zval = 10.0
     Generated using ONCVPSP code by D. R. Hamann
     Using radial grid of 1938 points,  8 beta functions with: 
                l(1) =   0
                l(2) =   0
                l(3) =   1
                l(4) =   1
                l(5) =   2
                l(6) =   2
                l(7) =   3
                l(8) =   3

     PseudoPot. # 3 for H  read from file:
     /home/mehlhorn/pseudos/H_ONCV_PBEsol-1.0.upf
     MD5 check sum: 398ef8f67c0a7342c05c87c5e19ea467
     Pseudo is Norm-conserving, Zval =  1.0
     Generated using ONCVPSP code by D. R. Hamann
     Using radial grid of 1180 points,  2 beta functions with: 
                l(1) =   0
                l(2) =   0

     atomic species   valence    mass     pseudopotential
     B                 3.00    10.81100     B ( 1.00)
     Ba               10.00   137.32700     Ba( 1.00)
     H                 1.00     1.00794     H ( 1.00)

      4 Sym. Ops. (no inversion) found ( 2 have fractional translation)



   Cartesian axes

     site n.     atom                  positions (alat units)
         1        Ba     tau(   1) = (   0.5000000   0.5127855   0.3462657  )
         2        Ba     tau(   2) = (   0.0000000   0.0000000   0.6923255  )
         3        B      tau(   3) = (   0.6102570   0.2453190   0.0000455  )
         4        B      tau(   4) = (   0.3897430   0.7802519   0.0000455  )
         5        B      tau(   5) = (   0.1102570   0.2674665   0.3461516  )
         6        B      tau(   6) = (   0.8897430   0.7581045   0.3461516  )
         7        H      tau(   7) = (   0.4340973   0.2996264   0.0001599  )
         8        H      tau(   8) = (   0.5659027   0.7259445   0.0001599  )
         9        H      tau(   9) = (   0.9340973   0.2131590   0.3460372  )
        10        H      tau(  10) = (   0.0659027   0.8124119   0.3460372  )
        11        H      tau(  11) = (   0.7220603   0.3933629  -0.0000058  )
        12        H      tau(  12) = (   0.2779397   0.6322081  -0.0000058  )
        13        H      tau(  13) = (   0.2220603   0.1194226   0.3462029  )
        14        H      tau(  14) = (   0.7779397   0.9061483   0.3462029  )
        15        H      tau(  15) = (   0.6392499   0.1457279   0.5404125  )
        16        H      tau(  16) = (   0.3607501   0.8798430   0.5404125  )
        17        H      tau(  17) = (   0.1392499   0.3670576   0.4981787  )
        18        H      tau(  18) = (   0.8607501   0.6585133   0.4981787  )
        19        H      tau(  19) = (   0.3605328   0.8798946   0.1519977  )
        20        H      tau(  20) = (   0.6394672   0.1456763   0.1519977  )
        21        H      tau(  21) = (   0.8605328   0.6584617   0.1941994  )
        22        H      tau(  22) = (   0.1394672   0.3671092   0.1941994  )

     number of k points=    27
                       cart. coord. in units 2pi/alat
        k(    1) = (   0.0000000   0.0000000   0.0000000), wk =   0.0312500
        k(    2) = (   0.0000000   0.0000000   0.3610660), wk =   0.0625000
        k(    3) = (   0.0000000   0.0000000  -0.7221320), wk =   0.0312500
        k(    4) = (   0.0000000   0.2437667   0.0000000), wk =   0.0625000
        k(    5) = (   0.0000000   0.2437667   0.3610660), wk =   0.1250000
        k(    6) = (   0.0000000   0.2437667  -0.7221320), wk =   0.0625000
        k(    7) = (   0.0000000  -0.4875333   0.0000000), wk =   0.0312500
        k(    8) = (   0.0000000  -0.4875333   0.3610660), wk =   0.0625000
        k(    9) = (   0.0000000  -0.4875333  -0.7221320), wk =   0.0312500
        k(   10) = (   0.2500000   0.0000000   0.0000000), wk =   0.0625000
        k(   11) = (   0.2500000   0.0000000   0.3610660), wk =   0.1250000
        k(   12) = (   0.2500000   0.0000000  -0.7221320), wk =   0.0625000
        k(   13) = (   0.2500000   0.2437667   0.0000000), wk =   0.1250000
        k(   14) = (   0.2500000   0.2437667   0.3610660), wk =   0.2500000
        k(   15) = (   0.2500000   0.2437667  -0.7221320), wk =   0.1250000
        k(   16) = (   0.2500000  -0.4875333   0.0000000), wk =   0.0625000
        k(   17) = (   0.2500000  -0.4875333   0.3610660), wk =   0.1250000
        k(   18) = (   0.2500000  -0.4875333  -0.7221320), wk =   0.0625000
        k(   19) = (  -0.5000000   0.0000000   0.0000000), wk =   0.0312500
        k(   20) = (  -0.5000000   0.0000000   0.3610660), wk =   0.0625000
        k(   21) = (  -0.5000000   0.0000000  -0.7221320), wk =   0.0312500
        k(   22) = (  -0.5000000   0.2437667   0.0000000), wk =   0.0625000
        k(   23) = (  -0.5000000   0.2437667   0.3610660), wk =   0.1250000
        k(   24) = (  -0.5000000   0.2437667  -0.7221320), wk =   0.0625000
        k(   25) = (  -0.5000000  -0.4875333   0.0000000), wk =   0.0312500
        k(   26) = (  -0.5000000  -0.4875333   0.3610660), wk =   0.0625000
        k(   27) = (  -0.5000000  -0.4875333  -0.7221320), wk =   0.0312500

     Dense  grid:   523515 G-vectors     FFT dimensions: ( 120, 120,  80)

     Smooth grid:   184993 G-vectors     FFT dimensions: (  80,  90,  60)

     Estimated max dynamical RAM per process >      88.63 MB

     Estimated total dynamical RAM >       2.08 GB

     Initial potential from superposition of free atoms

     starting charge      47.9682, renormalised to      48.0000
     Starting wfcs are   42 randomized atomic wfcs

     total cpu time spent up to now is       11.6 secs

     Self-consistent Calculation

     iteration #  1     ecut=   100.00 Ry     beta= 0.70
     Davidson diagonalization with overlap
     ethr =  1.00E-02,  avg # of iterations =  2.0

     total cpu time spent up to now is       23.9 secs

     total energy              =    -155.89754121 Ry
     estimated scf accuracy    <       2.18221178 Ry

     iteration #  2     ecut=   100.00 Ry     beta= 0.70
     Davidson diagonalization with overlap
     ethr =  4.55E-03,  avg # of iterations =  2.0

     total cpu time spent up to now is       35.6 secs

     total energy              =    -156.40358503 Ry
     estimated scf accuracy    <       0.37481260 Ry

     iteration #  3     ecut=   100.00 Ry     beta= 0.70
     Davidson diagonalization with overlap
     ethr =  7.81E-04,  avg # of iterations =  2.0

     total cpu time spent up to now is       47.4 secs

     total energy              =    -156.46588738 Ry
     estimated scf accuracy    <       0.00502017 Ry

     iteration #  4     ecut=   100.00 Ry     beta= 0.70
     Davidson diagonalization with overlap
     ethr =  1.05E-05,  avg # of iterations =  5.2

     total cpu time spent up to now is       64.8 secs

     total energy              =    -156.46916793 Ry
     estimated scf accuracy    <       0.00163062 Ry

     iteration #  5     ecut=   100.00 Ry     beta= 0.70
     Davidson diagonalization with overlap
     ethr =  3.40E-06,  avg # of iterations =  3.1

     total cpu time spent up to now is       77.0 secs

     total energy              =    -156.46973599 Ry
     estimated scf accuracy    <       0.00015907 Ry

     iteration #  6     ecut=   100.00 Ry     beta= 0.70
     Davidson diagonalization with overlap
     ethr =  3.31E-07,  avg # of iterations =  4.1

     total cpu time spent up to now is       90.7 secs

     total energy              =    -156.46979768 Ry
     estimated scf accuracy    <       0.00000107 Ry

     iteration #  7     ecut=   100.00 Ry     beta= 0.70
     Davidson diagonalization with overlap
     ethr =  2.23E-09,  avg # of iterations =  8.8

     total cpu time spent up to now is      119.3 secs

     total energy              =    -156.46980543 Ry
     estimated scf accuracy    <       0.00000098 Ry

     iteration #  8     ecut=   100.00 Ry     beta= 0.70
     Davidson diagonalization with overlap
     ethr =  2.04E-09,  avg # of iterations =  2.0

     total cpu time spent up to now is      131.1 secs

     total energy              =    -156.46980570 Ry
     estimated scf accuracy    <       0.00000007 Ry

     iteration #  9     ecut=   100.00 Ry     beta= 0.70
     Davidson diagonalization with overlap
     ethr =  1.49E-10,  avg # of iterations =  4.2

     total cpu time spent up to now is      144.5 secs

     total energy              =    -156.46980572 Ry
     estimated scf accuracy    <          3.8E-09 Ry

     iteration # 10     ecut=   100.00 Ry     beta= 0.70
     Davidson diagonalization with overlap
     ethr =  7.86E-12,  avg # of iterations =  5.1

     total cpu time spent up to now is      160.5 secs

     total energy              =    -156.46980572 Ry
     estimated scf accuracy    <          1.7E-09 Ry

     iteration # 11     ecut=   100.00 Ry     beta= 0.70
     Davidson diagonalization with overlap
     ethr =  3.61E-12,  avg # of iterations =  2.2

     total cpu time spent up to now is      172.3 secs

     End of self-consistent calculation

          k = 0.0000 0.0000 0.0000 ( 23157 PWs)   bands (ev):

   -23.3632 -23.3509  -9.0347  -8.9214  -8.6708  -8.6200  -8.5945  -8.5131
    -5.8618  -4.8566  -4.0164  -3.8880  -1.5355  -0.5973  -0.4496  -0.1519
     0.2590   0.3000   0.3727   0.4602   0.6443   1.0854   1.0902   1.1348

          k = 0.0000 0.0000 0.3611 ( 23139 PWs)   bands (ev):

   -23.3529 -23.3442  -8.9171  -8.9146  -8.8909  -8.8367  -8.6468  -8.6189
    -5.2723  -4.5324  -4.2401  -4.1665  -1.1020  -0.8358  -0.3846  -0.3407
    -0.1685  -0.0307   0.3609   0.6697   0.8505   0.9138   1.0065   1.1538

          k = 0.0000 0.0000-0.7221 ( 23132 PWs)   bands (ev):

   -23.3399 -23.3399  -9.1877  -9.1875  -8.7306  -8.7306  -8.6560  -8.6559
    -4.4861  -4.4857  -4.4577  -4.4571  -0.8706  -0.8701  -0.8621  -0.8604
     0.2359   0.2368   0.3816   0.3833   0.9692   0.9697   0.9901   0.9902

          k = 0.0000 0.2438 0.0000 ( 23143 PWs)   bands (ev):

   -23.3614 -23.3527  -8.9992  -8.8821  -8.7450  -8.6671  -8.5823  -8.5247
    -5.6291  -4.7474  -4.3474  -4.0429  -1.1312  -0.6659  -0.6556   0.1580
     0.1922   0.1970   0.5169   0.6576   0.7272   0.7454   0.9883   1.0605

          k = 0.0000 0.2438 0.3611 ( 23119 PWs)   bands (ev):

   -23.3516 -23.3454  -8.9757  -8.9297  -8.8201  -8.7998  -8.6606  -8.6482
    -5.1617  -4.6194  -4.2782  -4.2042  -0.9049  -0.8618  -0.6856  -0.0629
    -0.0203   0.1753   0.1980   0.7280   0.7889   0.8569   0.9604   1.0194

          k = 0.0000 0.2438-0.7221 ( 23144 PWs)   bands (ev):

   -23.3399 -23.3399  -9.2044  -9.2042  -8.7055  -8.7055  -8.6549  -8.6549
    -4.8602  -4.8601  -4.0666  -4.0666  -1.0174  -1.0167  -0.6537  -0.6529
     0.3318   0.3320   0.4088   0.4104   0.7781   0.7782   0.9800   0.9802

          k = 0.0000-0.4875 0.0000 ( 23028 PWs)   bands (ev):

   -23.3570 -23.3570  -8.8952  -8.8952  -8.7737  -8.7737  -8.5532  -8.5532
    -5.0620  -5.0620  -4.3798  -4.3798  -0.7899  -0.7899  -0.1622  -0.1622
     0.0950   0.0950   0.6370   0.6370   0.7899   0.7899   0.9054   0.9054

          k = 0.0000-0.4875 0.3611 ( 23128 PWs)   bands (ev):

   -23.3485 -23.3485  -8.9769  -8.9769  -8.7425  -8.7425  -8.7021  -8.7021
    -4.8889  -4.8889  -4.2678  -4.2678  -0.8504  -0.8504  -0.4305  -0.4305
     0.2490   0.2490   0.5473   0.5473   0.6982   0.6982   0.9303   0.9303

          k = 0.0000-0.4875-0.7221 ( 23136 PWs)   bands (ev):

   -23.3399 -23.3399  -9.2196  -9.2196  -8.6837  -8.6837  -8.6516  -8.6516
    -5.0184  -5.0184  -3.8914  -3.8914  -1.1191  -1.1191  -0.3665  -0.3665
     0.2372   0.2372   0.4802   0.4802   0.5660   0.5660   1.0187   1.0187

          k = 0.2500 0.0000 0.0000 ( 23136 PWs)   bands (ev):

   -23.3614 -23.3527  -8.9854  -8.8996  -8.7287  -8.6927  -8.5823  -8.5247
    -5.6388  -4.8653  -4.0744  -4.0711  -1.3283  -0.4202  -0.3719  -0.2794
     0.3131   0.3702   0.4220   0.4888   0.5952   0.6231   1.0415   1.0736

          k = 0.2500 0.0000 0.3611 ( 23143 PWs)   bands (ev):

   -23.3516 -23.3454  -8.9653  -8.9449  -8.8561  -8.7695  -8.6811  -8.6331
    -5.1057  -4.4991  -4.3120  -4.2839  -1.0752  -0.8269  -0.6826  -0.1184
    -0.1107   0.2014   0.4275   0.5699   0.7315   0.8585   1.0654   1.1024

          k = 0.2500 0.0000-0.7221 ( 23128 PWs)   bands (ev):

   -23.3399 -23.3399  -9.2110  -9.2108  -8.7116  -8.7116  -8.6519  -8.6519
    -4.6393  -4.6390  -4.2665  -4.2661  -1.3820  -1.3815  -0.3641  -0.3636
     0.2425   0.2430   0.6289   0.6301   0.7554   0.7555   1.0124   1.0128

          k = 0.2500 0.2438 0.0000 ( 23142 PWs)   bands (ev):

   -23.3601 -23.3539  -9.0224  -8.8699  -8.7990  -8.6288  -8.5735  -8.5328
    -5.4853  -4.8153  -4.3661  -4.0888  -1.0129  -0.6420  -0.4392   0.0516
     0.1193   0.1791   0.5027   0.6664   0.6712   0.7708   0.8263   0.9895

          k = 0.2500 0.2438 0.3611 ( 23128 PWs)   bands (ev):

   -23.3506 -23.3463  -8.9699  -8.9179  -8.9059  -8.7423  -8.6977  -8.6232
    -5.0135  -4.5578  -4.3760  -4.2847  -1.0417  -0.7993  -0.6830  -0.0961
     0.0583   0.2531   0.3563   0.5971   0.6996   0.8184   0.9842   1.0780

          k = 0.2500 0.2438-0.7221 ( 23114 PWs)   bands (ev):

   -23.3399 -23.3399  -9.2192  -9.1892  -8.7420  -8.6864  -8.6622  -8.6523
    -4.8820  -4.6515  -4.2426  -4.0042  -1.3579  -1.2596  -0.4510  -0.3035
     0.1842   0.1913   0.5941   0.6785   0.7497   0.8140   0.9598   0.9820

          k = 0.2500-0.4875 0.0000 ( 23150 PWs)   bands (ev):

   -23.3570 -23.3570  -8.9919  -8.9919  -8.6753  -8.6753  -8.5527  -8.5527
    -5.0904  -5.0904  -4.3345  -4.3345  -0.6996  -0.6996  -0.1711  -0.1711
     0.0491   0.0491   0.5609   0.5609   0.8362   0.8362   0.8396   0.8396

          k = 0.2500-0.4875 0.3611 ( 23116 PWs)   bands (ev):

   -23.3484 -23.3484  -8.9617  -8.9617  -8.8281  -8.8281  -8.6421  -8.6421
    -4.7870  -4.7870  -4.3439  -4.3439  -0.9517  -0.9517  -0.3299  -0.3299
     0.2063   0.2063   0.5564   0.5564   0.7173   0.7173   0.9542   0.9542

          k = 0.2500-0.4875-0.7221 ( 23144 PWs)   bands (ev):

   -23.3399 -23.3399  -9.1989  -9.1989  -8.7177  -8.7177  -8.6604  -8.6604
    -4.8843  -4.8843  -3.9901  -3.9901  -1.2310  -1.2310  -0.4385  -0.4385
     0.3138   0.3138   0.4517   0.4517   0.8204   0.8204   0.9692   0.9692

          k =-0.5000 0.0000 0.0000 ( 23160 PWs)   bands (ev):

   -23.3570 -23.3570  -8.8622  -8.8622  -8.8193  -8.8193  -8.5533  -8.5533
    -5.1554  -5.1554  -4.1781  -4.1781  -0.8721  -0.8721  -0.0266  -0.0266
     0.3687   0.3687   0.3717   0.3717   0.4638   0.4638   0.9128   0.9128

          k =-0.5000 0.0000 0.3611 ( 23152 PWs)   bands (ev):

   -23.3484 -23.3484  -8.9834  -8.9834  -8.7716  -8.7716  -8.6823  -8.6823
    -4.7183  -4.7183  -4.3774  -4.3774  -1.0062  -1.0062  -0.4008  -0.4008
     0.2127   0.2127   0.4184   0.4184   0.8215   0.8215   1.0540   1.0540

          k =-0.5000 0.0000-0.7221 ( 23092 PWs)   bands (ev):

   -23.3398 -23.3398  -9.2324  -9.2324  -8.6956  -8.6956  -8.6465  -8.6465
    -4.7041  -4.7041  -4.1595  -4.1595  -1.6114  -1.6114  -0.0183  -0.0183
     0.2467   0.2467   0.4140   0.4140   0.9543   0.9543   0.9645   0.9645

          k =-0.5000 0.2438 0.0000 ( 23178 PWs)   bands (ev):

   -23.3570 -23.3570  -8.9897  -8.9897  -8.6837  -8.6837  -8.5527  -8.5527
    -5.1377  -5.1377  -4.2329  -4.2329  -0.7583  -0.7583  -0.0342  -0.0342
     0.1214   0.1214   0.3273   0.3273   0.7375   0.7375   0.8947   0.8947

          k =-0.5000 0.2438 0.3611 ( 23128 PWs)   bands (ev):

   -23.3484 -23.3484  -8.9660  -8.9660  -8.8329  -8.8329  -8.6408  -8.6408
    -4.6771  -4.6771  -4.4229  -4.4229  -1.0138  -1.0138  -0.3641  -0.3641
     0.2469   0.2469   0.4645   0.4645   0.8134   0.8134   0.9809   0.9809

          k =-0.5000 0.2438-0.7221 ( 23140 PWs)   bands (ev):

   -23.3398 -23.3398  -9.2059  -9.2059  -8.7210  -8.7210  -8.6596  -8.6596
    -4.7059  -4.7059  -4.1455  -4.1455  -1.4929  -1.4929  -0.2554  -0.2554
     0.2916   0.2916   0.5017   0.5017   0.8778   0.8778   1.0325   1.0325

          k =-0.5000-0.4875 0.0000 ( 23144 PWs)   bands (ev):

   -23.3569 -23.3569  -9.0483  -9.0483  -8.6170  -8.6170  -8.5522  -8.5522
    -5.1185  -5.1185  -4.2880  -4.2880  -0.5995  -0.5995  -0.1894  -0.1894
     0.0081   0.0081   0.5169   0.5169   0.7388   0.7388   0.8776   0.8776

          k =-0.5000-0.4875 0.3611 ( 23112 PWs)   bands (ev):

   -23.3484 -23.3484  -8.9309  -8.9309  -8.8944  -8.8944  -8.6169  -8.6169
    -4.6135  -4.6135  -4.4903  -4.4903  -1.0048  -1.0048  -0.3979  -0.3979
     0.4099   0.4099   0.5493   0.5493   0.7032   0.7032   0.8951   0.8951

          k =-0.5000-0.4875-0.7221 ( 23144 PWs)   bands (ev):

   -23.3398 -23.3398  -9.1754  -9.1754  -8.7543  -8.7543  -8.6687  -8.6687
    -4.7086  -4.7086  -4.1299  -4.1299  -1.3144  -1.3144  -0.5795  -0.5795
     0.5382   0.5382   0.5837   0.5837   0.7321   0.7321   0.9938   0.9938

     highest occupied level (ev):     1.1538

!    total energy              =    -156.46980572 Ry
     estimated scf accuracy    <          5.3E-11 Ry

     The total energy is the sum of the following terms:
     one-electron contribution =     -19.21566108 Ry
     hartree contribution      =      24.76107882 Ry
     xc contribution           =     -49.35709997 Ry
     ewald contribution        =    -112.65812349 Ry

     convergence has been achieved in  11 iterations

     Forces acting on atoms (cartesian axes, Ry/au):

     atom    1 type  2   force =     0.00000000    0.00000000    0.00001572
     atom    2 type  2   force =     0.00000000    0.00000000   -0.00001572
     atom    3 type  1   force =    -0.00029056   -0.00138985   -0.00001086
     atom    4 type  1   force =     0.00029056    0.00138985   -0.00001086
     atom    5 type  1   force =    -0.00029056    0.00138985    0.00001086
     atom    6 type  1   force =     0.00029056   -0.00138985    0.00001086
     atom    7 type  3   force =    -0.01137622    0.00285714   -0.00001317
     atom    8 type  3   force =     0.01137622   -0.00285714   -0.00001317
     atom    9 type  3   force =    -0.01137622   -0.00285714    0.00001317
     atom   10 type  3   force =     0.01137622    0.00285714    0.00001317
     atom   11 type  3   force =     0.00751624    0.00906585    0.00000377
     atom   12 type  3   force =    -0.00751624   -0.00906585    0.00000377
     atom   13 type  3   force =     0.00751624   -0.00906585   -0.00000377
     atom   14 type  3   force =    -0.00751624    0.00906585   -0.00000377
     atom   15 type  3   force =     0.00141461   -0.00669012   -0.01014570
     atom   16 type  3   force =    -0.00141461    0.00669012   -0.01014570
     atom   17 type  3   force =     0.00141461    0.00669012    0.01014570
     atom   18 type  3   force =    -0.00141461   -0.00669012    0.01014570
     atom   19 type  3   force =    -0.00137678    0.00667089    0.01013277
     atom   20 type  3   force =     0.00137678   -0.00667089    0.01013277
     atom   21 type  3   force =    -0.00137678   -0.00667089   -0.01013277
     atom   22 type  3   force =     0.00137678    0.00667089   -0.01013277

     Total force =     0.048044     Total SCF correction =     0.000004


     Computing stress (Cartesian axis) and pressure

          total   stress  (Ry/bohr**3)                   (kbar)     P=       26.75
   0.00016874   0.00000000   0.00000000           24.82        0.00        0.00
   0.00000000   0.00017233   0.00000000            0.00       25.35        0.00
   0.00000000   0.00000000   0.00020436            0.00        0.00       30.06

     Volume is kept fixed: isostatic pressure set to zero

     BFGS Geometry Optimization
     Energy error            =      0.0E+00 Ry
     Gradient error          =      1.1E-02 Ry/Bohr
     Cell gradient error     =      3.3E+00 kbar

     number of scf cycles    =   1
     number of bfgs steps    =   0

     enthalpy           new  =    -156.4698057225 Ry

     new trust radius        =       0.0122349495 bohr
ibrav =      8
 celldm(1) =     12.44458619
 celldm(2) =      1.02566297
 celldm(3) =      0.69301097
Input lattice vectors:
     0.99967333     0.00000000     0.00000000
     0.00000000     1.02532791     0.00000000
     0.00000000     0.00000000     0.69278458
New lattice vectors in INITIAL alat:
     0.99967333     0.00000000     0.00000000
     0.00000000     1.02532791     0.00000000
     0.00000000     0.00000000     0.69278458
New lattice vectors in NEW alat (for information only):
     1.00000000     0.00000000     0.00000000
     0.00000000     1.02566297     0.00000000
     0.00000000     0.00000000     0.69301097
Discrepancy in bohr =     0.000000    0.000000    0.000000
     new conv_thr            =            1.0E-10 Ry

     new unit-cell volume =   1369.89148 a.u.^3 (   202.99697 Ang^3 )
     density =      2.73236 g/cm^3

CELL_PARAMETERS (alat= 12.44865285)
   0.999673325   0.000000000   0.000000000
   0.000000000   1.025327909   0.000000000
   0.000000000   0.000000000   0.692784580

ATOMIC_POSITIONS (crystal)
Ba               0.5000000000        0.5000000000        0.5001009891
Ba               0.0000000000        0.0000000000        0.9998990109
B                0.6102336752        0.2390935173        0.0000643972
B                0.3897663248        0.7609064827        0.0000643972
B                0.1102336752        0.2609064827        0.4999356028
B                0.8897663248        0.7390935173        0.4999356028
H                0.4331834005        0.2923795204        0.0002294047
H                0.5668165995        0.7076204796        0.0002294047
H                0.9331834005        0.2076204796        0.4997705953
H                0.0668165995        0.7923795204        0.4997705953
H                0.7226640476        0.3842651104       -0.0000079338
H                0.2773359524        0.6157348896       -0.0000079338
H                0.2226640476        0.1157348896        0.5000079338
H                0.7773359524        0.8842651104        0.5000079338
H                0.6393635601        0.1415703776        0.7793213332
H                0.3606364399        0.8584296224        0.7793213332
H                0.1393635601        0.3584296224        0.7206786668
H                0.8606364399        0.6415703776        0.7206786668
H                0.3604222340        0.8584784263        0.2207004285
H                0.6395777660        0.1415215737        0.2207004285
H                0.8604222340        0.6415215737        0.2792995715
H                0.1395777660        0.3584784263        0.2792995715



     Writing config-only to output data dir ./pwscf.save/ :
     XML data file
     NEW-OLD atomic charge density approx. for the potential

     total cpu time spent up to now is      184.4 secs

     Self-consistent Calculation

     iteration #  1     ecut=   100.00 Ry     beta= 0.70
     Davidson diagonalization with overlap
     ethr =  1.00E-06,  avg # of iterations =  4.0

     total cpu time spent up to now is      200.8 secs

     total energy              =    -156.47145960 Ry
     estimated scf accuracy    <       0.00059245 Ry

     iteration #  2     ecut=   100.00 Ry     beta= 0.70
     Davidson diagonalization with overlap
     ethr =  1.23E-06,  avg # of iterations =  2.0

     total cpu time spent up to now is      212.6 secs

     total energy              =    -156.47162995 Ry
     estimated scf accuracy    <       0.00012253 Ry

     iteration #  3     ecut=   100.00 Ry     beta= 0.70
     Davidson diagonalization with overlap
     ethr =  2.55E-07,  avg # of iterations =  2.0

     total cpu time spent up to now is      224.3 secs

     total energy              =    -156.47164656 Ry
     estimated scf accuracy    <       0.00000155 Ry

     iteration #  4     ecut=   100.00 Ry     beta= 0.70
     Davidson diagonalization with overlap
     ethr =  3.23E-09,  avg # of iterations =  3.0

     total cpu time spent up to now is      239.0 secs

     total energy              =    -156.47164734 Ry
     estimated scf accuracy    <       0.00000100 Ry

     iteration #  5     ecut=   100.00 Ry     beta= 0.70
     Davidson diagonalization with overlap
     ethr =  2.09E-09,  avg # of iterations =  2.0

     total cpu time spent up to now is      250.8 secs

     total energy              =    -156.47164745 Ry
     estimated scf accuracy    <       0.00000004 Ry

     iteration #  6     ecut=   100.00 Ry     beta= 0.70
     Davidson diagonalization with overlap
     ethr =  8.50E-11,  avg # of iterations =  4.1

     total cpu time spent up to now is      264.9 secs

     total energy              =    -156.47164747 Ry
     estimated scf accuracy    <       0.00000001 Ry

     iteration #  7     ecut=   100.00 Ry     beta= 0.70
     Davidson diagonalization with overlap
     ethr =  2.78E-11,  avg # of iterations =  3.9

     total cpu time spent up to now is      278.1 secs

     total energy              =    -156.47164747 Ry
     estimated scf accuracy    <          1.4E-10 Ry

     iteration #  8     ecut=   100.00 Ry     beta= 0.70
     Davidson diagonalization with overlap
     ethr =  2.83E-13,  avg # of iterations =  7.2

     total cpu time spent up to now is      300.8 secs

     End of self-consistent calculation

          k = 0.0000 0.0000 0.0000 ( 23157 PWs)   bands (ev):

   -23.3518 -23.3395  -9.0223  -8.9102  -8.6597  -8.6095  -8.5845  -8.5027
    -5.8398  -4.8198  -3.9817  -3.8509  -1.5365  -0.5828  -0.4426  -0.1293
     0.2778   0.3080   0.3857   0.4784   0.6602   1.1120   1.1168   1.1633

          k = 0.0000 0.0000 0.3609 ( 23139 PWs)   bands (ev):

   -23.3415 -23.3328  -8.9052  -8.9030  -8.8787  -8.8260  -8.6360  -8.6084
    -5.2496  -4.4975  -4.2037  -4.1281  -1.1048  -0.8331  -0.3820  -0.3254
    -0.1550  -0.0164   0.3798   0.6930   0.8747   0.9404   1.0287   1.1803

          k = 0.0000 0.0000-0.7217 ( 23132 PWs)   bands (ev):

   -23.3286 -23.3286  -9.1745  -9.1743  -8.7203  -8.7203  -8.6454  -8.6453
    -4.4569  -4.4564  -4.4190  -4.4184  -0.8705  -0.8699  -0.8625  -0.8608
     0.2557   0.2566   0.4007   0.4025   0.9962   0.9966   1.0140   1.0141

          k = 0.0000 0.2438 0.0000 ( 23143 PWs)   bands (ev):

   -23.3500 -23.3413  -8.9870  -8.8708  -8.7339  -8.6565  -8.5722  -8.5144
    -5.6062  -4.7105  -4.3175  -4.0060  -1.1271  -0.6548  -0.6486   0.1746
     0.2067   0.2206   0.5316   0.6750   0.7504   0.7631   1.0146   1.0866

          k = 0.0000 0.2438 0.3609 ( 23119 PWs)   bands (ev):

   -23.3402 -23.3340  -8.9640  -8.9177  -8.8083  -8.7890  -8.6496  -8.6378
    -5.1372  -4.5855  -4.2436  -4.1671  -0.9047  -0.8596  -0.6808  -0.0512
    -0.0056   0.1964   0.2139   0.7510   0.8122   0.8820   0.9840   1.0441

          k = 0.0000 0.2438-0.7217 ( 23144 PWs)   bands (ev):

   -23.3286 -23.3286  -9.1913  -9.1911  -8.6953  -8.6952  -8.6442  -8.6442
    -4.8262  -4.8262  -4.0329  -4.0328  -1.0174  -1.0167  -0.6526  -0.6518
     0.3520   0.3522   0.4289   0.4304   0.8010   0.8011   1.0057   1.0059

          k = 0.0000-0.4876 0.0000 ( 23028 PWs)   bands (ev):

   -23.3456 -23.3456  -8.8831  -8.8831  -8.7632  -8.7632  -8.5430  -8.5430
    -5.0359  -5.0359  -4.3439  -4.3439  -0.7840  -0.7840  -0.1473  -0.1473
     0.1100   0.1100   0.6627   0.6627   0.8082   0.8082   0.9279   0.9279

          k = 0.0000-0.4876 0.3609 ( 23128 PWs)   bands (ev):

   -23.3371 -23.3371  -8.9651  -8.9651  -8.7307  -8.7307  -8.6919  -8.6919
    -4.8598  -4.8598  -4.2327  -4.2327  -0.8485  -0.8485  -0.4218  -0.4218
     0.2676   0.2676   0.5659   0.5659   0.7233   0.7233   0.9543   0.9543

          k = 0.0000-0.4876-0.7217 ( 23136 PWs)   bands (ev):

   -23.3285 -23.3285  -9.2066  -9.2066  -8.6736  -8.6736  -8.6408  -8.6408
    -4.9842  -4.9842  -3.8580  -3.8580  -1.1193  -1.1193  -0.3651  -0.3651
     0.2588   0.2588   0.4988   0.4988   0.5894   0.5894   1.0447   1.0447

          k = 0.2501 0.0000 0.0000 ( 23136 PWs)   bands (ev):

   -23.3499 -23.3412  -8.9731  -8.8886  -8.7173  -8.6822  -8.5722  -8.5144
    -5.6155  -4.8308  -4.0392  -4.0356  -1.3279  -0.4092  -0.3625  -0.2626
     0.3302   0.3851   0.4380   0.5079   0.6129   0.6451   1.0680   1.1021

          k = 0.2501 0.0000 0.3609 ( 23143 PWs)   bands (ev):

   -23.3402 -23.3340  -8.9536  -8.9328  -8.8446  -8.7585  -8.6703  -8.6226
    -5.0815  -4.4650  -4.2756  -4.2475  -1.0783  -0.8213  -0.6818  -0.1017
    -0.0968   0.2179   0.4490   0.5912   0.7543   0.8815   1.0919   1.1269

          k = 0.2501 0.0000-0.7217 ( 23128 PWs)   bands (ev):

   -23.3285 -23.3285  -9.1978  -9.1976  -8.7014  -8.7013  -8.6413  -8.6412
    -4.6029  -4.6025  -4.2345  -4.2342  -1.3854  -1.3849  -0.3598  -0.3594
     0.2626   0.2630   0.6497   0.6509   0.7781   0.7783   1.0382   1.0386

          k = 0.2501 0.2438 0.0000 ( 23142 PWs)   bands (ev):

   -23.3486 -23.3425  -9.0106  -8.8582  -8.7883  -8.6180  -8.5633  -8.5224
    -5.4605  -4.7814  -4.3337  -4.0544  -1.0073  -0.6337  -0.4264   0.0664
     0.1341   0.1939   0.5249   0.6842   0.6939   0.7897   0.8514   1.0140

          k = 0.2501 0.2438 0.3609 ( 23128 PWs)   bands (ev):

   -23.3392 -23.3349  -8.9580  -8.9061  -8.8947  -8.7305  -8.6874  -8.6126
    -4.9877  -4.5233  -4.3429  -4.2483  -1.0429  -0.7983  -0.6762  -0.0811
     0.0740   0.2708   0.3766   0.6174   0.7230   0.8423   1.0091   1.1024

          k = 0.2501 0.2438-0.7217 ( 23114 PWs)   bands (ev):

   -23.3285 -23.3285  -9.2060  -9.1761  -8.7317  -8.6762  -8.6517  -8.6415
    -4.8467  -4.6165  -4.2093  -3.9713  -1.3612  -1.2630  -0.4451  -0.2996
     0.2035   0.2111   0.6135   0.6994   0.7735   0.8383   0.9838   1.0091

          k = 0.2501-0.4876 0.0000 ( 23150 PWs)   bands (ev):

   -23.3455 -23.3455  -8.9803  -8.9803  -8.6644  -8.6644  -8.5425  -8.5425
    -5.0619  -5.0619  -4.3014  -4.3014  -0.6906  -0.6906  -0.1561  -0.1561
     0.0633   0.0633   0.5812   0.5812   0.8554   0.8554   0.8641   0.8641

          k = 0.2501-0.4876 0.3609 ( 23116 PWs)   bands (ev):

   -23.3370 -23.3370  -8.9501  -8.9501  -8.8166  -8.8166  -8.6314  -8.6314
    -4.7571  -4.7571  -4.3097  -4.3097  -0.9512  -0.9512  -0.3182  -0.3182
     0.2233   0.2233   0.5774   0.5774   0.7400   0.7400   0.9784   0.9784

          k = 0.2501-0.4876-0.7217 ( 23144 PWs)   bands (ev):

   -23.3285 -23.3285  -9.1857  -9.1857  -8.7075  -8.7075  -8.6497  -8.6497
    -4.8496  -4.8496  -3.9566  -3.9566  -1.2341  -1.2341  -0.4329  -0.4329
     0.3348   0.3348   0.4700   0.4700   0.8444   0.8444   0.9947   0.9947

          k =-0.5002 0.0000 0.0000 ( 23160 PWs)   bands (ev):

   -23.3455 -23.3455  -8.8500  -8.8500  -8.8089  -8.8089  -8.5430  -8.5430
    -5.1279  -5.1279  -4.1422  -4.1422  -0.8686  -0.8686  -0.0125  -0.0125
     0.3817   0.3817   0.3947   0.3947   0.4835   0.4835   0.9394   0.9394

          k =-0.5002 0.0000 0.3609 ( 23152 PWs)   bands (ev):

   -23.3370 -23.3370  -8.9715  -8.9715  -8.7601  -8.7601  -8.6718  -8.6718
    -4.6900  -4.6900  -4.3407  -4.3407  -1.0076  -1.0076  -0.3909  -0.3909
     0.2320   0.2320   0.4388   0.4388   0.8438   0.8438   1.0799   1.0799

          k =-0.5002 0.0000-0.7217 ( 23092 PWs)   bands (ev):

   -23.3285 -23.3285  -9.2193  -9.2193  -8.6855  -8.6855  -8.6358  -8.6358
    -4.6665  -4.6665  -4.1282  -4.1282  -1.6163  -1.6163  -0.0125  -0.0125
     0.2668   0.2668   0.4350   0.4350   0.9811   0.9811   0.9869   0.9869

          k =-0.5002 0.2438 0.0000 ( 23178 PWs)   bands (ev):

   -23.3455 -23.3455  -8.9782  -8.9782  -8.6728  -8.6728  -8.5425  -8.5425
    -5.1088  -5.1088  -4.1996  -4.1996  -0.7505  -0.7505  -0.0197  -0.0197
     0.1354   0.1354   0.3472   0.3472   0.7566   0.7566   0.9205   0.9205

          k =-0.5002 0.2438 0.3609 ( 23128 PWs)   bands (ev):

   -23.3370 -23.3370  -8.9544  -8.9544  -8.8215  -8.8215  -8.6302  -8.6302
    -4.6478  -4.6478  -4.3876  -4.3876  -1.0145  -1.0145  -0.3528  -0.3528
     0.2655   0.2655   0.4849   0.4849   0.8367   0.8367   1.0048   1.0048

          k =-0.5002 0.2438-0.7217 ( 23140 PWs)   bands (ev):

   -23.3285 -23.3285  -9.1927  -9.1927  -8.7109  -8.7109  -8.6490  -8.6490
    -4.6693  -4.6693  -4.1131  -4.1131  -1.4977  -1.4977  -0.2482  -0.2482
     0.3100   0.3100   0.5234   0.5234   0.9019   0.9019   1.0577   1.0577

          k =-0.5002-0.4876 0.0000 ( 23144 PWs)   bands (ev):

   -23.3455 -23.3455  -9.0368  -9.0368  -8.6061  -8.6061  -8.5419  -8.5419
    -5.0880  -5.0880  -4.2573  -4.2573  -0.5844  -0.5844  -0.1793  -0.1793
     0.0217   0.0217   0.5379   0.5379   0.7610   0.7610   0.8976   0.8976

          k =-0.5002-0.4876 0.3609 ( 23112 PWs)   bands (ev):

   -23.3370 -23.3370  -8.9200  -8.9200  -8.8823  -8.8823  -8.6063  -8.6063
    -4.5825  -4.5825  -4.4571  -4.4571  -1.0050  -1.0050  -0.3857  -0.3857
     0.4278   0.4278   0.5731   0.5731   0.7256   0.7256   0.9161   0.9161

          k =-0.5002-0.4876-0.7217 ( 23144 PWs)   bands (ev):

   -23.3285 -23.3285  -9.1622  -9.1622  -8.7440  -8.7440  -8.6583  -8.6583
    -4.6731  -4.6731  -4.0966  -4.0966  -1.3193  -1.3193  -0.5733  -0.5733
     0.5595   0.5595   0.6075   0.6075   0.7537   0.7537   1.0177   1.0177

     highest occupied level (ev):     1.1803

!    total energy              =    -156.47164747 Ry
     estimated scf accuracy    <          6.0E-12 Ry

     The total energy is the sum of the following terms:
     one-electron contribution =     -18.85138295 Ry
     hartree contribution      =      24.58052309 Ry
     xc contribution           =     -49.31182385 Ry
     ewald contribution        =    -112.88896377 Ry

     convergence has been achieved in   8 iterations

     Forces acting on atoms (cartesian axes, Ry/au):

     atom    1 type  2   force =     0.00000000    0.00000000    0.00001303
     atom    2 type  2   force =     0.00000000    0.00000000   -0.00001303
     atom    3 type  1   force =    -0.00036430   -0.00153165   -0.00001217
     atom    4 type  1   force =     0.00036430    0.00153165   -0.00001217
     atom    5 type  1   force =    -0.00036430    0.00153165    0.00001217
     atom    6 type  1   force =     0.00036430   -0.00153165    0.00001217
     atom    7 type  3   force =    -0.00681985    0.00149904   -0.00001731
     atom    8 type  3   force =     0.00681985   -0.00149904   -0.00001731
     atom    9 type  3   force =    -0.00681985   -0.00149904    0.00001731
     atom   10 type  3   force =     0.00681985    0.00149904    0.00001731
     atom   11 type  3   force =     0.00449130    0.00500544    0.00000458
     atom   12 type  3   force =    -0.00449130   -0.00500544    0.00000458
     atom   13 type  3   force =     0.00449130   -0.00500544   -0.00000458
     atom   14 type  3   force =    -0.00449130    0.00500544   -0.00000458
     atom   15 type  3   force =     0.00060575   -0.00394045   -0.00572238
     atom   16 type  3   force =    -0.00060575    0.00394045   -0.00572238
     atom   17 type  3   force =     0.00060575    0.00394045    0.00572238
     atom   18 type  3   force =    -0.00060575   -0.00394045    0.00572238
     atom   19 type  3   force =    -0.00056401    0.00392351    0.00571488
     atom   20 type  3   force =     0.00056401   -0.00392351    0.00571488
     atom   21 type  3   force =    -0.00056401   -0.00392351   -0.00571488
     atom   22 type  3   force =     0.00056401    0.00392351   -0.00571488

     Total force =     0.027819     Total SCF correction =     0.000001


     Computing stress (Cartesian axis) and pressure

          total   stress  (Ry/bohr**3)                   (kbar)     P=       20.56
   0.00013051   0.00000000   0.00000000           19.20        0.00        0.00
   0.00000000   0.00013173   0.00000000            0.00       19.38        0.00
   0.00000000   0.00000000   0.00015705            0.00        0.00       23.10

     Volume is kept fixed: isostatic pressure set to zero
     Energy error            =      1.8E-03 Ry
     Gradient error          =      6.8E-03 Ry/Bohr
     Cell gradient error     =      2.5E+00 kbar

     number of scf cycles    =   2
     number of bfgs steps    =   1

     enthalpy           old  =    -156.4698057225 Ry
     enthalpy           new  =    -156.4716474721 Ry

     CASE: enthalpy          _new < enthalpy          _old

     new trust radius        =       0.0134626514 bohr
ibrav =      8
 celldm(1) =     12.43904581
 celldm(2) =      1.02572381
 celldm(3) =      0.69389623
Input lattice vectors:
     0.99922827     0.00000000     0.00000000
     0.00000000     1.02493222     0.00000000
     0.00000000     0.00000000     0.69336072
New lattice vectors in INITIAL alat:
     0.99922827     0.00000000     0.00000000
     0.00000000     1.02493222     0.00000000
     0.00000000     0.00000000     0.69336072
New lattice vectors in NEW alat (for information only):
     1.00000000     0.00000000     0.00000000
     0.00000000     1.02572381     0.00000000
     0.00000000     0.00000000     0.69389623
Discrepancy in bohr =     0.000000    0.000000    0.000000
     new conv_thr            =            1.0E-10 Ry

     new unit-cell volume =   1369.89148 a.u.^3 (   202.99697 Ang^3 )
     density =      2.73236 g/cm^3

CELL_PARAMETERS (alat= 12.44865285)
   0.999228267   0.000000000   0.000000000
   0.000000000   1.024932222   0.000000000
   0.000000000   0.000000000   0.693360725

ATOMIC_POSITIONS (crystal)
Ba               0.5000000000        0.5000000000        0.5001038996
Ba               0.0000000000        0.0000000000        0.9998961004
B                0.6101774786        0.2388630038        0.0000616833
B                0.3898225214        0.7611369962        0.0000616833
B                0.1101774786        0.2611369962        0.4999383167
B                0.8898225214        0.7388630038        0.4999383167
H                0.4321272629        0.2926061387        0.0002255449
H                0.5678727371        0.7073938613        0.0002255449
H                0.9321272629        0.2073938613        0.4997744551
H                0.0678727371        0.7926061387        0.4997744551
H                0.7233595967        0.3850214880       -0.0000069121
H                0.2766404033        0.6149785120       -0.0000069121
H                0.2233595967        0.1149785120        0.5000069121
H                0.7766404033        0.8850214880        0.5000069121
H                0.6394576483        0.1409752333        0.7780397227
H                0.3605423517        0.8590247667        0.7780397227
H                0.1394576483        0.3590247667        0.7219602773
H                0.8605423517        0.6409752333        0.7219602773
H                0.3603345871        0.8590710176        0.2219803596
H                0.6396654129        0.1409289824        0.2219803596
H                0.8603345871        0.6409289824        0.2780196404
H                0.1396654129        0.3590710176        0.2780196404



     Writing config-only to output data dir ./pwscf.save/ :
     XML data file
     NEW-OLD atomic charge density approx. for the potential

     total cpu time spent up to now is      312.9 secs

     Self-consistent Calculation

     iteration #  1     ecut=   100.00 Ry     beta= 0.70
     Davidson diagonalization with overlap
     ethr =  1.00E-06,  avg # of iterations =  4.0

     total cpu time spent up to now is      330.0 secs

     total energy              =    -156.47234653 Ry
     estimated scf accuracy    <       0.00072588 Ry

     iteration #  2     ecut=   100.00 Ry     beta= 0.70
     Davidson diagonalization with overlap
     ethr =  1.51E-06,  avg # of iterations =  2.0

     total cpu time spent up to now is      341.7 secs

     total energy              =    -156.47255774 Ry
     estimated scf accuracy    <       0.00015202 Ry

     iteration #  3     ecut=   100.00 Ry     beta= 0.70
     Davidson diagonalization with overlap
     ethr =  3.17E-07,  avg # of iterations =  2.0

     total cpu time spent up to now is      353.5 secs

     total energy              =    -156.47257754 Ry
     estimated scf accuracy    <       0.00000228 Ry

     iteration #  4     ecut=   100.00 Ry     beta= 0.70
     Davidson diagonalization with overlap
     ethr =  4.76E-09,  avg # of iterations =  3.0

     total cpu time spent up to now is      368.0 secs

     total energy              =    -156.47257865 Ry
     estimated scf accuracy    <       0.00000144 Ry

     iteration #  5     ecut=   100.00 Ry     beta= 0.70
     Davidson diagonalization with overlap
     ethr =  2.99E-09,  avg # of iterations =  2.0

     total cpu time spent up to now is      379.8 secs

     total energy              =    -156.47257883 Ry
     estimated scf accuracy    <       0.00000004 Ry

     iteration #  6     ecut=   100.00 Ry     beta= 0.70
     Davidson diagonalization with overlap
     ethr =  8.64E-11,  avg # of iterations =  4.8

     total cpu time spent up to now is      394.5 secs

     total energy              =    -156.47257886 Ry
     estimated scf accuracy    <       0.00000002 Ry

     iteration #  7     ecut=   100.00 Ry     beta= 0.70
     Davidson diagonalization with overlap
     ethr =  3.36E-11,  avg # of iterations =  3.2

     total cpu time spent up to now is      406.9 secs

     total energy              =    -156.47257886 Ry
     estimated scf accuracy    <          3.5E-10 Ry

     iteration #  8     ecut=   100.00 Ry     beta= 0.70
     Davidson diagonalization with overlap
     ethr =  7.29E-13,  avg # of iterations =  6.1

     total cpu time spent up to now is      426.0 secs

     End of self-consistent calculation

          k = 0.0000 0.0000 0.0000 ( 23157 PWs)   bands (ev):

   -23.3396 -23.3272  -9.0088  -8.8982  -8.6475  -8.5982  -8.5736  -8.4914
    -5.8154  -4.7789  -3.9432  -3.8095  -1.5363  -0.5650  -0.4337  -0.1027
     0.2962   0.3200   0.3965   0.4963   0.6740   1.1422   1.1489   1.1980

          k = 0.0000 0.0000 0.3606 ( 23139 PWs)   bands (ev):

   -23.3294 -23.3206  -8.8916  -8.8904  -8.8647  -8.8145  -8.6242  -8.5972
    -5.2252  -4.4596  -4.1628  -4.0849  -1.1075  -0.8296  -0.3782  -0.3069
    -0.1418  -0.0024   0.4007   0.7187   0.9040   0.9706   1.0534   1.2112

          k = 0.0000 0.0000-0.7211 ( 23132 PWs)   bands (ev):

   -23.3165 -23.3165  -9.1590  -9.1588  -8.7095  -8.7094  -8.6340  -8.6339
    -4.4258  -4.4254  -4.3751  -4.3745  -0.8722  -0.8716  -0.8622  -0.8606
     0.2796   0.2805   0.4220   0.4238   1.0277   1.0280   1.0403   1.0405

          k = 0.0000 0.2439 0.0000 ( 23143 PWs)   bands (ev):

   -23.3378 -23.3290  -8.9736  -8.8586  -8.7218  -8.6451  -8.5613  -8.5031
    -5.5808  -4.6692  -4.2846  -3.9651  -1.1211  -0.6408  -0.6398   0.1902
     0.2196   0.2483   0.5512   0.6914   0.7791   0.7794   1.0446   1.1183

          k = 0.0000 0.2439 0.3606 ( 23119 PWs)   bands (ev):

   -23.3281 -23.3219  -8.9509  -8.9042  -8.7952  -8.7773  -8.6377  -8.6267
    -5.1108  -4.5485  -4.2049  -4.1254  -0.9043  -0.8567  -0.6743  -0.0404
     0.0109   0.2203   0.2309   0.7769   0.8398   0.9110   1.0104   1.0729

          k = 0.0000 0.2439-0.7211 ( 23144 PWs)   bands (ev):

   -23.3165 -23.3165  -9.1759  -9.1758  -8.6845  -8.6845  -8.6327  -8.6327
    -4.7888  -4.7887  -3.9957  -3.9956  -1.0170  -1.0163  -0.6530  -0.6521
     0.3759   0.3762   0.4516   0.4532   0.8268   0.8269   1.0356   1.0358

          k = 0.0000-0.4878 0.0000 ( 23028 PWs)   bands (ev):

   -23.3334 -23.3334  -8.8698  -8.8698  -8.7519  -8.7519  -8.5320  -8.5320
    -5.0066  -5.0066  -4.3043  -4.3043  -0.7763  -0.7763  -0.1284  -0.1284
     0.1234   0.1234   0.6931   0.6931   0.8254   0.8254   0.9557   0.9557

          k = 0.0000-0.4878 0.3606 ( 23128 PWs)   bands (ev):

   -23.3250 -23.3250  -8.9519  -8.9519  -8.7177  -8.7177  -8.6810  -8.6810
    -4.8282  -4.8282  -4.1936  -4.1936  -0.8460  -0.8460  -0.4123  -0.4123
     0.2876   0.2876   0.5857   0.5857   0.7535   0.7535   0.9817   0.9817

          k = 0.0000-0.4878-0.7211 ( 23136 PWs)   bands (ev):

   -23.3165 -23.3165  -9.1914  -9.1914  -8.6630  -8.6630  -8.6292  -8.6292
    -4.9466  -4.9466  -3.8213  -3.8213  -1.1190  -1.1190  -0.3655  -0.3655
     0.2840   0.2840   0.5208   0.5208   0.6155   0.6155   1.0752   1.0752

          k = 0.2502 0.0000 0.0000 ( 23136 PWs)   bands (ev):

   -23.3377 -23.3290  -8.9597  -8.8767  -8.7049  -8.6708  -8.5613  -8.5032
    -5.5896  -4.7923  -4.0002  -3.9963  -1.3260  -0.3953  -0.3514  -0.2418
     0.3458   0.3989   0.4527   0.5316   0.6294   0.6706   1.1000   1.1369

          k = 0.2502 0.0000 0.3606 ( 23143 PWs)   bands (ev):

   -23.3281 -23.3219  -8.9405  -8.9194  -8.8319  -8.7464  -8.6586  -8.6112
    -5.0553  -4.4276  -4.2348  -4.2068  -1.0818  -0.8148  -0.6808  -0.0822
    -0.0816   0.2349   0.4731   0.6161   0.7788   0.9076   1.1233   1.1552

          k = 0.2502 0.0000-0.7211 ( 23128 PWs)   bands (ev):

   -23.3165 -23.3165  -9.1824  -9.1823  -8.6906  -8.6906  -8.6298  -8.6298
    -4.5622  -4.5618  -4.1997  -4.1994  -1.3897  -1.3892  -0.3559  -0.3555
     0.2867   0.2872   0.6731   0.6745   0.8037   0.8039   1.0678   1.0682

          k = 0.2502 0.2439 0.0000 ( 23142 PWs)   bands (ev):

   -23.3364 -23.3303  -8.9977  -8.8454  -8.7767  -8.6064  -8.5524  -8.5112
    -5.4329  -4.7431  -4.2983  -4.0164  -0.9998  -0.6233  -0.4104   0.0845
     0.1473   0.2071   0.5514   0.7010   0.7215   0.8074   0.8818   1.0434

          k = 0.2502 0.2439 0.3606 ( 23128 PWs)   bands (ev):

   -23.3271 -23.3227  -8.9447  -8.8927  -8.8827  -8.7175  -8.6763  -8.6012
    -4.9597  -4.4854  -4.3061  -4.2076  -1.0442  -0.7969  -0.6681  -0.0647
     0.0917   0.2895   0.3991   0.6407   0.7498   0.8696   1.0372   1.1306

          k = 0.2502 0.2439-0.7211 ( 23114 PWs)   bands (ev):

   -23.3165 -23.3165  -9.1906  -9.1607  -8.7210  -8.6655  -8.6404  -8.6299
    -4.8075  -4.5777  -4.1726  -3.9352  -1.3650  -1.2671  -0.4397  -0.2965
     0.2266   0.2346   0.6346   0.7227   0.8024   0.8655   1.0101   1.0415

          k = 0.2502-0.4878 0.0000 ( 23150 PWs)   bands (ev):

   -23.3333 -23.3333  -8.9677  -8.9677  -8.6526  -8.6526  -8.5314  -8.5314
    -5.0297  -5.0297  -4.2652  -4.2652  -0.6796  -0.6796  -0.1371  -0.1371
     0.0758   0.0758   0.6059   0.6059   0.8736   0.8736   0.8935   0.8935

          k = 0.2502-0.4878 0.3606 ( 23116 PWs)   bands (ev):

   -23.3249 -23.3249  -8.9372  -8.9372  -8.8040  -8.8040  -8.6199  -8.6199
    -4.7243  -4.7243  -4.2715  -4.2715  -0.9505  -0.9505  -0.3050  -0.3050
     0.2416   0.2416   0.6008   0.6008   0.7670   0.7670   1.0056   1.0056

          k = 0.2502-0.4878-0.7211 ( 23144 PWs)   bands (ev):

   -23.3165 -23.3165  -9.1704  -9.1704  -8.6968  -8.6968  -8.6383  -8.6383
    -4.8112  -4.8112  -3.9198  -3.9198  -1.2373  -1.2373  -0.4280  -0.4280
     0.3588   0.3588   0.4916   0.4916   0.8716   0.8716   1.0245   1.0245

          k =-0.5004 0.0000 0.0000 ( 23160 PWs)   bands (ev):

   -23.3333 -23.3333  -8.8366  -8.8366  -8.7977  -8.7977  -8.5320  -8.5320
    -5.0970  -5.0970  -4.1025  -4.1025  -0.8632  -0.8632   0.0038   0.0038
     0.3924   0.3924   0.4222   0.4222   0.5029   0.5029   0.9722   0.9722

          k =-0.5004 0.0000 0.3606 ( 23152 PWs)   bands (ev):

   -23.3249 -23.3249  -8.9584  -8.9584  -8.7476  -8.7476  -8.6604  -8.6604
    -4.6590  -4.6590  -4.2998  -4.2998  -1.0094  -1.0094  -0.3797  -0.3797
     0.2541   0.2541   0.4614   0.4614   0.8679   0.8679   1.1106   1.1106

          k =-0.5004 0.0000-0.7211 ( 23092 PWs)   bands (ev):

   -23.3164 -23.3164  -9.2040  -9.2040  -8.6748  -8.6748  -8.6243  -8.6243
    -4.6240  -4.6240  -4.0945  -4.0945  -1.6223  -1.6223  -0.0070  -0.0070
     0.2910   0.2910   0.4584   0.4584   1.0115   1.0115   1.0132   1.0132

          k =-0.5004 0.2439 0.0000 ( 23178 PWs)   bands (ev):

   -23.3333 -23.3333  -8.9657  -8.9657  -8.6609  -8.6609  -8.5314  -8.5314
    -5.0763  -5.0763  -4.1630  -4.1630  -0.7404  -0.7404  -0.0023  -0.0023
     0.1477   0.1477   0.3712   0.3712   0.7747   0.7747   0.9519   0.9519

          k =-0.5004 0.2439 0.3606 ( 23128 PWs)   bands (ev):

   -23.3249 -23.3249  -8.9414  -8.9414  -8.8088  -8.8088  -8.6187  -8.6187
    -4.6155  -4.6155  -4.3483  -4.3483  -1.0154  -1.0154  -0.3403  -0.3403
     0.2875   0.2875   0.5070   0.5070   0.8623   0.8623   1.0330   1.0330

          k =-0.5004 0.2439-0.7211 ( 23140 PWs)   bands (ev):

   -23.3164 -23.3164  -9.1774  -9.1774  -8.7002  -8.7002  -8.6375  -8.6375
    -4.6282  -4.6282  -4.0780  -4.0780  -1.5034  -1.5034  -0.2412  -0.2412
     0.3322   0.3322   0.5472   0.5472   0.9303   0.9303   1.0861   1.0861

          k =-0.5004-0.4878 0.0000 ( 23144 PWs)   bands (ev):

   -23.3333 -23.3333  -9.0243  -9.0243  -8.5944  -8.5944  -8.5309  -8.5309
    -5.0534  -5.0534  -4.2240  -4.2240  -0.5666  -0.5666  -0.1659  -0.1659
     0.0335   0.0335   0.5643   0.5643   0.7868   0.7868   0.9167   0.9167

          k =-0.5004-0.4878 0.3606 ( 23112 PWs)   bands (ev):

   -23.3249 -23.3249  -8.9082  -8.9082  -8.8685  -8.8685  -8.5949  -8.5949
    -4.5480  -4.5480  -4.4204  -4.4204  -1.0052  -1.0052  -0.3723  -0.3723
     0.4476   0.4476   0.6004   0.6004   0.7521   0.7521   0.9389   0.9389

          k =-0.5004-0.4878-0.7211 ( 23144 PWs)   bands (ev):

   -23.3164 -23.3164  -9.1466  -9.1466  -8.7334  -8.7334  -8.6470  -8.6470
    -4.6334  -4.6334  -4.0601  -4.0601  -1.3247  -1.3247  -0.5674  -0.5674
     0.5825   0.5825   0.6351   0.6351   0.7808   0.7808   1.0439   1.0439

     highest occupied level (ev):     1.2112

!    total energy              =    -156.47257886 Ry
     estimated scf accuracy    <          8.7E-12 Ry

     The total energy is the sum of the following terms:
     one-electron contribution =     -18.43689878 Ry
     hartree contribution      =      24.37522280 Ry
     xc contribution           =     -49.26171034 Ry
     ewald contribution        =    -113.14919254 Ry

     convergence has been achieved in   8 iterations

     Forces acting on atoms (cartesian axes, Ry/au):

     atom    1 type  2   force =     0.00000000    0.00000000    0.00000792
     atom    2 type  2   force =     0.00000000    0.00000000   -0.00000792
     atom    3 type  1   force =    -0.00046407   -0.00093894   -0.00000922
     atom    4 type  1   force =     0.00046407    0.00093894   -0.00000922
     atom    5 type  1   force =    -0.00046407    0.00093894    0.00000922
     atom    6 type  1   force =     0.00046407   -0.00093894    0.00000922
     atom    7 type  3   force =    -0.00182703   -0.00000076   -0.00002212
     atom    8 type  3   force =     0.00182703    0.00000076   -0.00002212
     atom    9 type  3   force =    -0.00182703    0.00000076    0.00002212
     atom   10 type  3   force =     0.00182703   -0.00000076    0.00002212
     atom   11 type  3   force =     0.00104851    0.00040011    0.00000489
     atom   12 type  3   force =    -0.00104851   -0.00040011    0.00000489
     atom   13 type  3   force =     0.00104851   -0.00040011   -0.00000489
     atom   14 type  3   force =    -0.00104851    0.00040011   -0.00000489
     atom   15 type  3   force =    -0.00022210   -0.00118796   -0.00109797
     atom   16 type  3   force =     0.00022210    0.00118796   -0.00109797
     atom   17 type  3   force =    -0.00022210    0.00118796    0.00109797
     atom   18 type  3   force =     0.00022210   -0.00118796    0.00109797
     atom   19 type  3   force =     0.00026653    0.00117327    0.00109391
     atom   20 type  3   force =    -0.00026653   -0.00117327    0.00109391
     atom   21 type  3   force =     0.00026653   -0.00117327   -0.00109391
     atom   22 type  3   force =    -0.00026653    0.00117327   -0.00109391

     Total force =     0.006635     Total SCF correction =     0.000001


     Computing stress (Cartesian axis) and pressure

          total   stress  (Ry/bohr**3)                   (kbar)     P=       13.79
   0.00008788   0.00000000   0.00000000           12.93        0.00        0.00
   0.00000000   0.00008767   0.00000000            0.00       12.90        0.00
   0.00000000   0.00000000   0.00010570            0.00        0.00       15.55

     Volume is kept fixed: isostatic pressure set to zero
     Energy error            =      9.3E-04 Ry
     Gradient error          =      1.8E-03 Ry/Bohr
     Cell gradient error     =      1.8E+00 kbar

     number of scf cycles    =   3
     number of bfgs steps    =   2

     enthalpy           old  =    -156.4716474721 Ry
     enthalpy           new  =    -156.4725788601 Ry

     CASE: enthalpy          _new < enthalpy          _old

     new trust radius        =       0.0043965669 bohr
ibrav =      8
 celldm(1) =     12.43584377
 celldm(2) =      1.02572675
 celldm(3) =      0.69443037
Input lattice vectors:
     0.99897105     0.00000000     0.00000000
     0.00000000     1.02467133     0.00000000
     0.00000000     0.00000000     0.69371584
New lattice vectors in INITIAL alat:
     0.99897105     0.00000000     0.00000000
     0.00000000     1.02467133     0.00000000
     0.00000000     0.00000000     0.69371584
New lattice vectors in NEW alat (for information only):
     1.00000000     0.00000000     0.00000000
     0.00000000     1.02572675     0.00000000
     0.00000000     0.00000000     0.69443037
Discrepancy in bohr =     0.000000    0.000000    0.000000
     new conv_thr            =            9.3E-11 Ry

     new unit-cell volume =   1369.89148 a.u.^3 (   202.99697 Ang^3 )
     density =      2.73236 g/cm^3

CELL_PARAMETERS (alat= 12.44865285)
   0.998971047   0.000000000   0.000000000
   0.000000000   1.024671327   0.000000000
   0.000000000   0.000000000   0.693715839

ATOMIC_POSITIONS (crystal)
Ba               0.5000000000        0.5000000000        0.5001055304
Ba               0.0000000000        0.0000000000        0.9998944696
B                0.6101208715        0.2387333723        0.0000598911
B                0.3898791285        0.7612666277        0.0000598911
B                0.1101208715        0.2612666277        0.4999401089
B                0.8898791285        0.7387333723        0.4999401089
H                0.4317756398        0.2926410187        0.0002216423
H                0.5682243602        0.7073589813        0.0002216423
H                0.9317756398        0.2073589813        0.4997783577
H                0.0682243602        0.7926410187        0.4997783577
H                0.7235751018        0.3851783779       -0.0000060243
H                0.2764248982        0.6148216221       -0.0000060243
H                0.2235751018        0.1148216221        0.5000060243
H                0.7764248982        0.8851783779        0.5000060243
H                0.6394492686        0.1407636014        0.7776776646
H                0.3605507314        0.8592363986        0.7776776646
H                0.1394492686        0.3592363986        0.7223223354
H                0.8605507314        0.6407636014        0.7223223354
H                0.3603485485        0.8592807765        0.2223415499
H                0.6396514515        0.1407192235        0.2223415499
H                0.8603485485        0.6407192235        0.2776584501
H                0.1396514515        0.3592807765        0.2776584501



     Writing config-only to output data dir ./pwscf.save/ :
     XML data file
     NEW-OLD atomic charge density approx. for the potential

     total cpu time spent up to now is      438.1 secs

     Self-consistent Calculation

     iteration #  1     ecut=   100.00 Ry     beta= 0.70
     Davidson diagonalization with overlap
     ethr =  1.00E-06,  avg # of iterations =  2.3

     Threshold (ethr) on eigenvalues was too large:
     Diagonalizing with lowered threshold

     Davidson diagonalization with overlap
     ethr =  9.82E-08,  avg # of iterations =  2.0

     total cpu time spent up to now is      461.0 secs

     total energy              =    -156.47262850 Ry
     estimated scf accuracy    <       0.00006206 Ry

     iteration #  2     ecut=   100.00 Ry     beta= 0.70
     Davidson diagonalization with overlap
     ethr =  1.29E-07,  avg # of iterations =  2.0

     total cpu time spent up to now is      472.8 secs

     total energy              =    -156.47264602 Ry
     estimated scf accuracy    <       0.00001191 Ry

     iteration #  3     ecut=   100.00 Ry     beta= 0.70
     Davidson diagonalization with overlap
     ethr =  2.48E-08,  avg # of iterations =  2.0

     total cpu time spent up to now is      484.5 secs

     total energy              =    -156.47264758 Ry
     estimated scf accuracy    <       0.00000018 Ry

     iteration #  4     ecut=   100.00 Ry     beta= 0.70
     Davidson diagonalization with overlap
     ethr =  3.82E-10,  avg # of iterations =  3.0

     total cpu time spent up to now is      499.0 secs

     total energy              =    -156.47264767 Ry
     estimated scf accuracy    <       0.00000010 Ry

     iteration #  5     ecut=   100.00 Ry     beta= 0.70
     Davidson diagonalization with overlap
     ethr =  2.05E-10,  avg # of iterations =  2.0

     total cpu time spent up to now is      510.8 secs

     total energy              =    -156.47264769 Ry
     estimated scf accuracy    <          1.1E-09 Ry

     iteration #  6     ecut=   100.00 Ry     beta= 0.70
     Davidson diagonalization with overlap
     ethr =  2.31E-12,  avg # of iterations =  6.1

     total cpu time spent up to now is      530.8 secs

     total energy              =    -156.47264769 Ry
     estimated scf accuracy    <          9.0E-10 Ry

     iteration #  7     ecut=   100.00 Ry     beta= 0.70
     Davidson diagonalization with overlap
     ethr =  1.88E-12,  avg # of iterations =  2.0

     total cpu time spent up to now is      542.5 secs

     End of self-consistent calculation

          k = 0.0000 0.0000 0.0000 ( 23157 PWs)   bands (ev):

   -23.3365 -23.3242  -9.0048  -8.8949  -8.6441  -8.5952  -8.5710  -8.4885
    -5.8082  -4.7667  -3.9318  -3.7970  -1.5349  -0.5594  -0.4309  -0.0933
     0.3007   0.3253   0.3978   0.5008   0.6763   1.1518   1.1586   1.2107

          k = 0.0000 0.0000 0.3604 ( 23139 PWs)   bands (ev):

   -23.3264 -23.3176  -8.8875  -8.8870  -8.8603  -8.8115  -8.6210  -8.5943
    -5.2186  -4.4490  -4.1503  -4.0716  -1.1079  -0.8281  -0.3762  -0.3013
    -0.1384   0.0009   0.4071   0.7263   0.9127   0.9807   1.0611   1.2222

          k = 0.0000 0.0000-0.7208 ( 23132 PWs)   bands (ev):

   -23.3136 -23.3136  -9.1537  -9.1534  -8.7069  -8.7069  -8.6310  -8.6310
    -4.4179  -4.4174  -4.3612  -4.3606  -0.8730  -0.8724  -0.8613  -0.8597
     0.2867   0.2876   0.4282   0.4300   1.0390   1.0391   1.0486   1.0489

          k = 0.0000 0.2440 0.0000 ( 23143 PWs)   bands (ev):

   -23.3347 -23.3260  -8.9697  -8.8552  -8.7184  -8.6421  -8.5586  -8.5003
    -5.5731  -4.6566  -4.2751  -3.9528  -1.1178  -0.6368  -0.6363   0.1934
     0.2217   0.2578   0.5587   0.6952   0.7829   0.7897   1.0542   1.1281

          k = 0.0000 0.2440 0.3604 ( 23119 PWs)   bands (ev):

   -23.3251 -23.3189  -8.9471  -8.9001  -8.7914  -8.7742  -8.6344  -8.6238
    -5.1036  -4.5379  -4.1933  -4.1127  -0.9036  -0.8554  -0.6720  -0.0378
     0.0157   0.2282   0.2356   0.7849   0.8484   0.9213   1.0183   1.0823

          k = 0.0000 0.2440-0.7208 ( 23144 PWs)   bands (ev):

   -23.3136 -23.3136  -9.1707  -9.1706  -8.6819  -8.6819  -8.6297  -8.6297
    -4.7779  -4.7778  -3.9849  -3.9849  -1.0162  -1.0155  -0.6534  -0.6525
     0.3833   0.3836   0.4587   0.4603   0.8349   0.8349   1.0461   1.0463

          k = 0.0000-0.4880 0.0000 ( 23028 PWs)   bands (ev):

   -23.3303 -23.3303  -8.8659  -8.8659  -8.7489  -8.7489  -8.5292  -8.5292
    -4.9977  -4.9977  -4.2927  -4.2927  -0.7734  -0.7734  -0.1212  -0.1212
     0.1258   0.1258   0.7037   0.7037   0.8295   0.8295   0.9643   0.9643

          k = 0.0000-0.4880 0.3604 ( 23128 PWs)   bands (ev):

   -23.3219 -23.3219  -8.9480  -8.9480  -8.7140  -8.7140  -8.6781  -8.6781
    -4.8192  -4.8192  -4.1819  -4.1819  -0.8449  -0.8449  -0.4090  -0.4090
     0.2935   0.2935   0.5913   0.5913   0.7644   0.7644   0.9899   0.9899

          k = 0.0000-0.4880-0.7208 ( 23136 PWs)   bands (ev):

   -23.3135 -23.3135  -9.1863  -9.1863  -8.6604  -8.6604  -8.6261  -8.6261
    -4.9356  -4.9356  -3.8109  -3.8109  -1.1183  -1.1183  -0.3659  -0.3659
     0.2924   0.2924   0.5272   0.5272   0.6239   0.6239   1.0854   1.0854

          k = 0.2503 0.0000 0.0000 ( 23136 PWs)   bands (ev):

   -23.3347 -23.3259  -8.9558  -8.8734  -8.7014  -8.6678  -8.5587  -8.5003
    -5.5818  -4.7806  -3.9886  -3.9846  -1.3241  -0.3899  -0.3483  -0.2352
     0.3489   0.4016   0.4558   0.5406   0.6329   0.6782   1.1102   1.1495

          k = 0.2503 0.0000 0.3604 ( 23143 PWs)   bands (ev):

   -23.3250 -23.3188  -8.9367  -8.9154  -8.8282  -8.7430  -8.6554  -8.6082
    -5.0480  -4.4171  -4.2223  -4.1943  -1.0828  -0.8122  -0.6805  -0.0777
    -0.0756   0.2397   0.4809   0.6239   0.7857   0.9154   1.1345   1.1641

          k = 0.2503 0.0000-0.7208 ( 23128 PWs)   bands (ev):

   -23.3135 -23.3135  -9.1772  -9.1771  -8.6880  -8.6879  -8.6268  -8.6268
    -4.5499  -4.5495  -4.1901  -4.1897  -1.3909  -1.3904  -0.3546  -0.3543
     0.2940   0.2944   0.6805   0.6818   0.8124   0.8126   1.0775   1.0780

          k = 0.2503 0.2440 0.0000 ( 23142 PWs)   bands (ev):

   -23.3334 -23.3272  -8.9941  -8.8417  -8.7735  -8.6032  -8.5497  -8.5084
    -5.4245  -4.7312  -4.2881  -4.0052  -0.9960  -0.6196  -0.4053   0.0908
     0.1497   0.2094   0.5606   0.7049   0.7314   0.8116   0.8915   1.0534

          k = 0.2503 0.2440 0.3604 ( 23128 PWs)   bands (ev):

   -23.3241 -23.3197  -8.9408  -8.8886  -8.8795  -8.7138  -8.6733  -8.5982
    -4.9518  -4.4745  -4.2951  -4.1953  -1.0446  -0.7964  -0.6649  -0.0598
     0.0973   0.2950   0.4061   0.6475   0.7587   0.8784   1.0460   1.1397

          k = 0.2503 0.2440-0.7208 ( 23114 PWs)   bands (ev):

   -23.3135 -23.3135  -9.1855  -9.1555  -8.7184  -8.6628  -8.6375  -8.6269
    -4.7958  -4.5662  -4.1622  -3.9251  -1.3658  -1.2683  -0.4377  -0.2956
     0.2337   0.2423   0.6408   0.7295   0.8128   0.8742   1.0179   1.0531

          k = 0.2503-0.4880 0.0000 ( 23150 PWs)   bands (ev):

   -23.3303 -23.3303  -8.9641  -8.9641  -8.6494  -8.6494  -8.5286  -8.5286
    -5.0196  -5.0196  -4.2549  -4.2549  -0.6755  -0.6755  -0.1302  -0.1302
     0.0779   0.0779   0.6145   0.6145   0.8780   0.8780   0.9031   0.9031

          k = 0.2503-0.4880 0.3604 ( 23116 PWs)   bands (ev):

   -23.3219 -23.3219  -8.9334  -8.9334  -8.8004  -8.8004  -8.6169  -8.6169
    -4.7149  -4.7149  -4.2602  -4.2602  -0.9502  -0.9502  -0.3005  -0.3005
     0.2470   0.2470   0.6080   0.6080   0.7763   0.7763   1.0137   1.0137

          k = 0.2503-0.4880-0.7208 ( 23144 PWs)   bands (ev):

   -23.3135 -23.3135  -9.1652  -9.1652  -8.6943  -8.6943  -8.6353  -8.6353
    -4.7998  -4.7998  -3.9094  -3.9094  -1.2380  -1.2380  -0.4265  -0.4265
     0.3666   0.3666   0.4982   0.4982   0.8805   0.8805   1.0341   1.0341

          k =-0.5005 0.0000 0.0000 ( 23160 PWs)   bands (ev):

   -23.3303 -23.3303  -8.8328  -8.8328  -8.7948  -8.7948  -8.5292  -8.5292
    -5.0876  -5.0876  -4.0907  -4.0907  -0.8602  -0.8602   0.0084   0.0084
     0.3937   0.3937   0.4311   0.4311   0.5078   0.5078   0.9840   0.9840

          k =-0.5005 0.0000 0.3604 ( 23152 PWs)   bands (ev):

   -23.3219 -23.3219  -8.9545  -8.9545  -8.7441  -8.7441  -8.6573  -8.6573
    -4.6500  -4.6500  -4.2876  -4.2876  -1.0102  -1.0102  -0.3755  -0.3755
     0.2608   0.2608   0.4684   0.4684   0.8747   0.8747   1.1211   1.1211

          k =-0.5005 0.0000-0.7208 ( 23092 PWs)   bands (ev):

   -23.3135 -23.3135  -9.1990  -9.1990  -8.6721  -8.6721  -8.6213  -8.6213
    -4.6108  -4.6108  -4.0855  -4.0855  -1.6242  -1.6242  -0.0052  -0.0052
     0.2983   0.2983   0.4661   0.4661   1.0189   1.0189   1.0242   1.0242

          k =-0.5005 0.2440 0.0000 ( 23178 PWs)   bands (ev):

   -23.3302 -23.3302  -8.9622  -8.9622  -8.6576  -8.6576  -8.5287  -8.5287
    -5.0661  -5.0661  -4.1524  -4.1524  -0.7360  -0.7360   0.0033   0.0033
     0.1497   0.1497   0.3789   0.3789   0.7791   0.7791   0.9630   0.9630

          k =-0.5005 0.2440 0.3604 ( 23128 PWs)   bands (ev):

   -23.3219 -23.3219  -8.9377  -8.9377  -8.8052  -8.8052  -8.6156  -8.6156
    -4.6061  -4.6061  -4.3367  -4.3367  -1.0158  -1.0158  -0.3358  -0.3358
     0.2942   0.2942   0.5139   0.5139   0.8698   0.8698   1.0424   1.0424

          k =-0.5005 0.2440-0.7208 ( 23140 PWs)   bands (ev):

   -23.3135 -23.3135  -9.1722  -9.1722  -8.6976  -8.6976  -8.6346  -8.6346
    -4.6156  -4.6156  -4.0684  -4.0684  -1.5051  -1.5051  -0.2390  -0.2390
     0.3395   0.3395   0.5546   0.5546   0.9400   0.9400   1.0950   1.0950

          k =-0.5005-0.4880 0.0000 ( 23144 PWs)   bands (ev):

   -23.3302 -23.3302  -9.0209  -9.0209  -8.5912  -8.5912  -8.5281  -8.5281
    -5.0424  -5.0424  -4.2146  -4.2146  -0.5599  -0.5599  -0.1615  -0.1615
     0.0352   0.0352   0.5735   0.5735   0.7954   0.7954   0.9213   0.9213

          k =-0.5005-0.4880 0.3604 ( 23112 PWs)   bands (ev):

   -23.3219 -23.3219  -8.9051  -8.9051  -8.8642  -8.8642  -8.5919  -8.5919
    -4.5378  -4.5378  -4.4097  -4.4097  -1.0052  -1.0052  -0.3680  -0.3680
     0.4541   0.4541   0.6092   0.6092   0.7608   0.7608   0.9454   0.9454

          k =-0.5005-0.4880-0.7208 ( 23144 PWs)   bands (ev):

   -23.3135 -23.3135  -9.1412  -9.1412  -8.7309  -8.7309  -8.6441  -8.6441
    -4.6214  -4.6214  -4.0499  -4.0499  -1.3262  -1.3262  -0.5657  -0.5657
     0.5893   0.5893   0.6446   0.6446   0.7904   0.7904   1.0515   1.0515

     highest occupied level (ev):     1.2222

!    total energy              =    -156.47264769 Ry
     estimated scf accuracy    <          2.7E-11 Ry

     The total energy is the sum of the following terms:
     one-electron contribution =     -18.30170564 Ry
     hartree contribution      =      24.30825647 Ry
     xc contribution           =     -49.24673731 Ry
     ewald contribution        =    -113.23246121 Ry

     convergence has been achieved in   7 iterations

     Forces acting on atoms (cartesian axes, Ry/au):

     atom    1 type  2   force =     0.00000000    0.00000000    0.00000440
     atom    2 type  2   force =     0.00000000    0.00000000   -0.00000440
     atom    3 type  1   force =    -0.00043373   -0.00069411   -0.00000791
     atom    4 type  1   force =     0.00043373    0.00069411   -0.00000791
     atom    5 type  1   force =    -0.00043373    0.00069411    0.00000791
     atom    6 type  1   force =     0.00043373   -0.00069411    0.00000791
     atom    7 type  3   force =    -0.00044953   -0.00039382   -0.00002356
     atom    8 type  3   force =     0.00044953    0.00039382   -0.00002356
     atom    9 type  3   force =    -0.00044953    0.00039382    0.00002356
     atom   10 type  3   force =     0.00044953   -0.00039382    0.00002356
     atom   11 type  3   force =     0.00004354   -0.00089496    0.00000457
     atom   12 type  3   force =    -0.00004354    0.00089496    0.00000457
     atom   13 type  3   force =     0.00004354    0.00089496   -0.00000457
     atom   14 type  3   force =    -0.00004354   -0.00089496   -0.00000457
     atom   15 type  3   force =    -0.00046029   -0.00043869    0.00028655
     atom   16 type  3   force =     0.00046029    0.00043869    0.00028655
     atom   17 type  3   force =    -0.00046029    0.00043869   -0.00028655
     atom   18 type  3   force =     0.00046029   -0.00043869   -0.00028655
     atom   19 type  3   force =     0.00050373    0.00042631   -0.00028860
     atom   20 type  3   force =    -0.00050373   -0.00042631   -0.00028860
     atom   21 type  3   force =     0.00050373   -0.00042631    0.00028860
     atom   22 type  3   force =    -0.00050373    0.00042631    0.00028860

     Total force =     0.003368     Total SCF correction =     0.000003


     Computing stress (Cartesian axis) and pressure

          total   stress  (Ry/bohr**3)                   (kbar)     P=       11.78
   0.00007592   0.00000000   0.00000000           11.17        0.00        0.00
   0.00000000   0.00007538   0.00000000            0.00       11.09        0.00
   0.00000000   0.00000000   0.00008893            0.00        0.00       13.08

     Volume is kept fixed: isostatic pressure set to zero
     Energy error            =      6.9E-05 Ry
     Gradient error          =      8.9E-04 Ry/Bohr
     Cell gradient error     =      1.3E+00 kbar

     number of scf cycles    =   4
     number of bfgs steps    =   3

     enthalpy           old  =    -156.4725788601 Ry
     enthalpy           new  =    -156.4726476893 Ry

     CASE: enthalpy          _new < enthalpy          _old

     new trust radius        =       0.0025855383 bohr
ibrav =      8
 celldm(1) =     12.43375906
 celldm(2) =      1.02571202
 celldm(3) =      0.69478971
Input lattice vectors:
     0.99880358     0.00000000     0.00000000
     0.00000000     1.02448484     0.00000000
     0.00000000     0.00000000     0.69395845
New lattice vectors in INITIAL alat:
     0.99880358     0.00000000     0.00000000
     0.00000000     1.02448484     0.00000000
     0.00000000     0.00000000     0.69395845
New lattice vectors in NEW alat (for information only):
     1.00000000     0.00000000     0.00000000
     0.00000000     1.02571202     0.00000000
     0.00000000     0.00000000     0.69478971
Discrepancy in bohr =     0.000000    0.000000    0.000000
     new conv_thr            =            6.9E-12 Ry

     new unit-cell volume =   1369.89148 a.u.^3 (   202.99697 Ang^3 )
     density =      2.73236 g/cm^3

CELL_PARAMETERS (alat= 12.44865285)
   0.998803582   0.000000000   0.000000000
   0.000000000   1.024484837   0.000000000
   0.000000000   0.000000000   0.693958451

ATOMIC_POSITIONS (crystal)
Ba               0.5000000000        0.5000000000        0.5001064198
Ba               0.0000000000        0.0000000000        0.9998935802
B                0.6100705446        0.2386468562        0.0000585016
B                0.3899294554        0.7613531438        0.0000585016
B                0.1100705446        0.2613531438        0.4999414984
B                0.8899294554        0.7386468562        0.4999414984
H                0.4316637370        0.2926135744        0.0002177728
H                0.5683362630        0.7073864256        0.0002177728
H                0.9316637370        0.2073864256        0.4997822272
H                0.0683362630        0.7926135744        0.4997822272
H                0.7236224500        0.3851313738       -0.0000052504
H                0.2763775500        0.6148686262       -0.0000052504
H                0.2236224500        0.1148686262        0.5000052504
H                0.7763775500        0.8851313738        0.5000052504
H                0.6394060764        0.1406818796        0.7776421094
H                0.3605939236        0.8593181204        0.7776421094
H                0.1394060764        0.3593181204        0.7223578906
H                0.8605939236        0.6406818796        0.7223578906
H                0.3603967795        0.8593610378        0.2223766671
H                0.6396032205        0.1406389622        0.2223766671
H                0.8603967795        0.6406389622        0.2776233329
H                0.1396032205        0.3593610378        0.2776233329



     Writing config-only to output data dir ./pwscf.save/ :
     XML data file
     NEW-OLD atomic charge density approx. for the potential

     total cpu time spent up to now is      554.6 secs

     Self-consistent Calculation

     iteration #  1     ecut=   100.00 Ry     beta= 0.70
     Davidson diagonalization with overlap
     ethr =  1.00E-06,  avg # of iterations =  2.0

     Threshold (ethr) on eigenvalues was too large:
     Diagonalizing with lowered threshold

     Davidson diagonalization with overlap
     ethr =  5.00E-09,  avg # of iterations =  3.0

     total cpu time spent up to now is      579.0 secs

     total energy              =    -156.47266571 Ry
     estimated scf accuracy    <       0.00000334 Ry

     iteration #  2     ecut=   100.00 Ry     beta= 0.70
     Davidson diagonalization with overlap
     ethr =  6.96E-09,  avg # of iterations =  2.0

     total cpu time spent up to now is      590.8 secs

     total energy              =    -156.47266646 Ry
     estimated scf accuracy    <       0.00000035 Ry

     iteration #  3     ecut=   100.00 Ry     beta= 0.70
     Davidson diagonalization with overlap
     ethr =  7.23E-10,  avg # of iterations =  2.0

     total cpu time spent up to now is      602.5 secs

     total energy              =    -156.47266651 Ry
     estimated scf accuracy    <          9.1E-09 Ry

     iteration #  4     ecut=   100.00 Ry     beta= 0.70
     Davidson diagonalization with overlap
     ethr =  1.89E-11,  avg # of iterations =  4.9

     total cpu time spent up to now is      617.2 secs

     total energy              =    -156.47266652 Ry
     estimated scf accuracy    <          1.8E-09 Ry

     iteration #  5     ecut=   100.00 Ry     beta= 0.70
     Davidson diagonalization with overlap
     ethr =  3.76E-12,  avg # of iterations =  4.3

     total cpu time spent up to now is      631.2 secs

     total energy              =    -156.47266652 Ry
     estimated scf accuracy    <          4.3E-11 Ry

     iteration #  6     ecut=   100.00 Ry     beta= 0.70
     Davidson diagonalization with overlap
     ethr =  1.00E-13,  avg # of iterations =  5.7

     total cpu time spent up to now is      650.3 secs

     End of self-consistent calculation

          k = 0.0000 0.0000 0.0000 ( 23157 PWs)   bands (ev):

   -23.3366 -23.3242  -9.0042  -8.8945  -8.6436  -8.5950  -8.5711  -8.4885
    -5.8067  -4.7645  -3.9296  -3.7946  -1.5332  -0.5581  -0.4302  -0.0902
     0.3007   0.3279   0.3961   0.5010   0.6750   1.1543   1.1605   1.2151

          k = 0.0000 0.0000 0.3603 ( 23139 PWs)   bands (ev):

   -23.3264 -23.3177  -8.8867  -8.8865  -8.8592  -8.8114  -8.6208  -8.5942
    -5.2181  -4.4478  -4.1476  -4.0686  -1.1074  -0.8272  -0.3748  -0.3001
    -0.1384   0.0007   0.4086   0.7278   0.9142   0.9837   1.0629   1.2258

          k = 0.0000 0.0000-0.7205 ( 23132 PWs)   bands (ev):

   -23.3137 -23.3137  -9.1519  -9.1517  -8.7071  -8.7070  -8.6309  -8.6308
    -4.4177  -4.4173  -4.3578  -4.3572  -0.8735  -0.8728  -0.8602  -0.8586
     0.2879   0.2888   0.4294   0.4311   1.0427   1.0428   1.0507   1.0511

          k = 0.0000 0.2440 0.0000 ( 23143 PWs)   bands (ev):

   -23.3347 -23.3260  -8.9691  -8.8548  -8.7181  -8.6419  -8.5587  -8.5003
    -5.5716  -4.6540  -4.2736  -3.9505  -1.1156  -0.6358  -0.6353   0.1927
     0.2205   0.2609   0.5617   0.6949   0.7823   0.7935   1.0566   1.1302

          k = 0.0000 0.2440 0.3603 ( 23119 PWs)   bands (ev):

   -23.3251 -23.3189  -8.9464  -8.8992  -8.7907  -8.7740  -8.6341  -8.6237
    -5.1028  -4.5365  -4.1911  -4.1100  -0.9028  -0.8547  -0.6711  -0.0379
     0.0167   0.2302   0.2362   0.7867   0.8503   0.9247   1.0197   1.0849

          k = 0.0000 0.2440-0.7205 ( 23144 PWs)   bands (ev):

   -23.3137 -23.3137  -9.1691  -9.1690  -8.6820  -8.6820  -8.6295  -8.6295
    -4.7761  -4.7760  -3.9833  -3.9832  -1.0152  -1.0145  -0.6537  -0.6528
     0.3847   0.3850   0.4604   0.4619   0.8367   0.8368   1.0494   1.0496

          k = 0.0000-0.4881 0.0000 ( 23028 PWs)   bands (ev):

   -23.3303 -23.3303  -8.8653  -8.8653  -8.7487  -8.7487  -8.5292  -8.5292
    -4.9957  -4.9957  -4.2908  -4.2908  -0.7722  -0.7722  -0.1184  -0.1184
     0.1247   0.1247   0.7073   0.7073   0.8293   0.8293   0.9664   0.9664

          k = 0.0000-0.4881 0.3603 ( 23128 PWs)   bands (ev):

   -23.3220 -23.3220  -8.9473  -8.9473  -8.7134  -8.7134  -8.6779  -8.6779
    -4.8180  -4.8180  -4.1797  -4.1797  -0.8442  -0.8442  -0.4080  -0.4080
     0.2946   0.2946   0.5920   0.5920   0.7681   0.7681   0.9914   0.9914

          k = 0.0000-0.4881-0.7205 ( 23136 PWs)   bands (ev):

   -23.3136 -23.3136  -9.1847  -9.1847  -8.6605  -8.6605  -8.6259  -8.6259
    -4.9338  -4.9338  -3.8095  -3.8095  -1.1173  -1.1173  -0.3663  -0.3663
     0.2948   0.2948   0.5284   0.5284   0.6262   0.6262   1.0884   1.0884

          k = 0.2503 0.0000 0.0000 ( 23136 PWs)   bands (ev):

   -23.3347 -23.3260  -8.9552  -8.8731  -8.7009  -8.6677  -8.5587  -8.5003
    -5.5801  -4.7783  -3.9865  -3.9824  -1.3224  -0.3875  -0.3477  -0.2335
     0.3481   0.4008   0.4552   0.5440   0.6323   0.6795   1.1127   1.1539

          k = 0.2503 0.0000 0.3603 ( 23143 PWs)   bands (ev):

[...]
        18        H      tau(  18) = (   0.8590486   0.6543204   0.5030999  )
        19        H      tau(  19) = (   0.3641171   0.8866165   0.1539593  )
        20        H      tau(  20) = (   0.6257829   0.1406784   0.1539593  )
        21        H      tau(  21) = (   0.8590671   0.6543259   0.1951831  )
        22        H      tau(  22) = (   0.1308329   0.3729690   0.1951831  )

     number of k points=    27
                       cart. coord. in units 2pi/alat
        k(    1) = (   0.0000000   0.0000000   0.0000000), wk =   0.0312500
        k(    2) = (   0.0000000   0.0000000   0.3580201), wk =   0.0625000
        k(    3) = (   0.0000000   0.0000000  -0.7160401), wk =   0.0312500
        k(    4) = (   0.0000000   0.2433576   0.0000000), wk =   0.0625000
        k(    5) = (   0.0000000   0.2433576   0.3580201), wk =   0.1250000
        k(    6) = (   0.0000000   0.2433576  -0.7160401), wk =   0.0625000
        k(    7) = (   0.0000000  -0.4867152   0.0000000), wk =   0.0312500
        k(    8) = (   0.0000000  -0.4867152   0.3580201), wk =   0.0625000
        k(    9) = (   0.0000000  -0.4867152  -0.7160401), wk =   0.0312500
        k(   10) = (   0.2525508   0.0000000   0.0000000), wk =   0.0625000
        k(   11) = (   0.2525508   0.0000000   0.3580201), wk =   0.1250000
        k(   12) = (   0.2525508   0.0000000  -0.7160401), wk =   0.0625000
        k(   13) = (   0.2525508   0.2433576   0.0000000), wk =   0.1250000
        k(   14) = (   0.2525508   0.2433576   0.3580201), wk =   0.2500000
        k(   15) = (   0.2525508   0.2433576  -0.7160401), wk =   0.1250000
        k(   16) = (   0.2525508  -0.4867152   0.0000000), wk =   0.0625000
        k(   17) = (   0.2525508  -0.4867152   0.3580201), wk =   0.1250000
        k(   18) = (   0.2525508  -0.4867152  -0.7160401), wk =   0.0625000
        k(   19) = (  -0.5051015   0.0000000   0.0000000), wk =   0.0312500
        k(   20) = (  -0.5051015   0.0000000   0.3580201), wk =   0.0625000
        k(   21) = (  -0.5051015   0.0000000  -0.7160401), wk =   0.0312500
        k(   22) = (  -0.5051015   0.2433576   0.0000000), wk =   0.0625000
        k(   23) = (  -0.5051015   0.2433576   0.3580201), wk =   0.1250000
        k(   24) = (  -0.5051015   0.2433576  -0.7160401), wk =   0.0625000
        k(   25) = (  -0.5051015  -0.4867152   0.0000000), wk =   0.0312500
        k(   26) = (  -0.5051015  -0.4867152   0.3580201), wk =   0.0625000
        k(   27) = (  -0.5051015  -0.4867152  -0.7160401), wk =   0.0312500

     Dense  grid:   523359 G-vectors     FFT dimensions: ( 120, 120,  80)

     Smooth grid:   185041 G-vectors     FFT dimensions: (  80,  90,  60)

     Estimated max dynamical RAM per process >      89.12 MB

     Estimated total dynamical RAM >       2.09 GB

     Initial potential from superposition of free atoms

     starting charge      47.9682, renormalised to      48.0000
     Starting wfcs are   42 randomized atomic wfcs

     total cpu time spent up to now is     6007.8 secs

     Self-consistent Calculation

     iteration #  1     ecut=   100.00 Ry     beta= 0.70
     Davidson diagonalization with overlap
     ethr =  1.00E-06,  avg # of iterations = 11.1

     total cpu time spent up to now is     6046.6 secs

     total energy              =    -155.86333547 Ry
     estimated scf accuracy    <       2.17836636 Ry

     iteration #  2     ecut=   100.00 Ry     beta= 0.70
     Davidson diagonalization with overlap
     ethr =  4.54E-03,  avg # of iterations =  2.0

     total cpu time spent up to now is     6058.4 secs

     total energy              =    -156.40180849 Ry
     estimated scf accuracy    <       0.44143934 Ry

     iteration #  3     ecut=   100.00 Ry     beta= 0.70
     Davidson diagonalization with overlap
     ethr =  9.20E-04,  avg # of iterations =  2.0

     total cpu time spent up to now is     6070.2 secs

     total energy              =    -156.47066284 Ry
     estimated scf accuracy    <       0.00549093 Ry

     iteration #  4     ecut=   100.00 Ry     beta= 0.70
     Davidson diagonalization with overlap
     ethr =  1.14E-05,  avg # of iterations =  3.3

     total cpu time spent up to now is     6085.1 secs

     total energy              =    -156.47260902 Ry
     estimated scf accuracy    <       0.00207397 Ry

     iteration #  5     ecut=   100.00 Ry     beta= 0.70
     Davidson diagonalization with overlap
     ethr =  4.32E-06,  avg # of iterations =  3.8

     total cpu time spent up to now is     6097.9 secs

     total energy              =    -156.47322790 Ry
     estimated scf accuracy    <       0.00004989 Ry

     iteration #  6     ecut=   100.00 Ry     beta= 0.70
     Davidson diagonalization with overlap
     ethr =  1.04E-07,  avg # of iterations =  5.8

     total cpu time spent up to now is     6117.0 secs

     total energy              =    -156.47331124 Ry
     estimated scf accuracy    <       0.00001102 Ry

     iteration #  7     ecut=   100.00 Ry     beta= 0.70
     Davidson diagonalization with overlap
     ethr =  2.30E-08,  avg # of iterations =  3.7

     total cpu time spent up to now is     6130.0 secs

     total energy              =    -156.47331483 Ry
     estimated scf accuracy    <       0.00000015 Ry

     iteration #  8     ecut=   100.00 Ry     beta= 0.70
     Davidson diagonalization with overlap
     ethr =  3.09E-10,  avg # of iterations =  6.4

     total cpu time spent up to now is     6150.9 secs

     total energy              =    -156.47331507 Ry
     estimated scf accuracy    <       0.00000006 Ry

     iteration #  9     ecut=   100.00 Ry     beta= 0.70
     Davidson diagonalization with overlap
     ethr =  1.22E-10,  avg # of iterations =  2.4

     total cpu time spent up to now is     6162.8 secs

     total energy              =    -156.47331508 Ry
     estimated scf accuracy    <          1.4E-09 Ry

     iteration # 10     ecut=   100.00 Ry     beta= 0.70
     Davidson diagonalization with overlap
     ethr =  3.01E-12,  avg # of iterations =  6.4

     total cpu time spent up to now is     6183.3 secs

     total energy              =    -156.47331508 Ry
     estimated scf accuracy    <          2.7E-10 Ry

     iteration # 11     ecut=   100.00 Ry     beta= 0.70
     Davidson diagonalization with overlap
     ethr =  5.62E-13,  avg # of iterations =  3.6

     total cpu time spent up to now is     6196.2 secs

     total energy              =    -156.47331508 Ry
     estimated scf accuracy    <          7.9E-12 Ry

     iteration # 12     ecut=   100.00 Ry     beta= 0.70
     Davidson diagonalization with overlap
     ethr =  1.00E-13,  avg # of iterations =  3.9

     total cpu time spent up to now is     6209.4 secs

     total energy              =    -156.47331508 Ry
     estimated scf accuracy    <          1.4E-12 Ry

     iteration # 13     ecut=   100.00 Ry     beta= 0.70
     Davidson diagonalization with overlap
     ethr =  1.00E-13,  avg # of iterations =  1.0

     total cpu time spent up to now is     6218.5 secs

     End of self-consistent calculation

          k = 0.0000 0.0000 0.0000 ( 23145 PWs)   bands (ev):

   -23.3679 -23.3556  -9.0112  -8.8930  -8.6572  -8.6129  -8.5942  -8.5132
    -5.7950  -4.7541  -3.9326  -3.7597  -1.5083  -0.5562  -0.4294  -0.0979
     0.3470   0.3687   0.4304   0.5939   0.6596   1.1840   1.1883   1.2322

          k = 0.0000 0.0000 0.3580 ( 23152 PWs)   bands (ev):

   -23.3585 -23.3498  -8.8985  -8.8877  -8.8595  -8.8174  -8.6370  -8.6136
    -5.2335  -4.4654  -4.1331  -4.0301  -1.1036  -0.7763  -0.2974  -0.2647
    -0.1566  -0.0026   0.4062   0.7372   0.9289   1.0283   1.1185   1.2712

          k = 0.0000 0.0000-0.7160 ( 23116 PWs)   bands (ev):

   -23.3465 -23.3465  -9.1366  -9.1366  -8.7256  -8.7256  -8.6482  -8.6482
    -4.4572  -4.4571  -4.3187  -4.3187  -0.8674  -0.8673  -0.7736  -0.7736
     0.2808   0.2810   0.4251   0.4252   1.0683   1.0684   1.1102   1.1103

          k = 0.0000 0.2434 0.0000 ( 23115 PWs)   bands (ev):

   -23.3661 -23.3574  -8.9765  -8.8551  -8.7308  -8.6568  -8.5820  -8.5248
    -5.5602  -4.6323  -4.2849  -3.9254  -1.0814  -0.6307  -0.6212   0.2037
     0.2143   0.2617   0.6382   0.7669   0.8073   0.8128   1.0848   1.1575

          k = 0.0000 0.2434 0.3580 ( 23141 PWs)   bands (ev):

   -23.3572 -23.3511  -8.9511  -8.9008  -8.7993  -8.7813  -8.6490  -8.6414
    -5.1184  -4.5523  -4.1763  -4.0766  -0.8940  -0.8049  -0.6155  -0.0276
     0.0535   0.2148   0.2444   0.8078   0.8588   0.9758   1.0550   1.1246

          k = 0.0000 0.2434-0.7160 ( 23114 PWs)   bands (ev):

   -23.3465 -23.3465  -9.1547  -9.1547  -8.7002  -8.7002  -8.6466  -8.6466
    -4.7800  -4.7800  -3.9812  -3.9812  -0.9227  -0.9227  -0.6493  -0.6493
     0.3686   0.3688   0.4616   0.4616   0.8596   0.8597   1.1038   1.1038

          k = 0.0000-0.4867 0.0000 ( 23080 PWs)   bands (ev):

   -23.3617 -23.3617  -8.8735  -8.8735  -8.7575  -8.7575  -8.5531  -8.5531
    -4.9811  -4.9811  -4.2854  -4.2854  -0.7358  -0.7358  -0.1141  -0.1141
     0.1184   0.1184   0.7325   0.7325   0.8946   0.8946   1.0019   1.0019

          k = 0.0000-0.4867 0.3580 ( 23156 PWs)   bands (ev):

   -23.3541 -23.3541  -8.9503  -8.9503  -8.7223  -8.7223  -8.6934  -8.6934
    -4.8332  -4.8332  -4.1574  -4.1574  -0.7909  -0.7909  -0.3996  -0.3996
     0.3371   0.3371   0.5685   0.5685   0.8112   0.8112   1.0205   1.0205

          k = 0.0000-0.4867-0.7160 ( 23172 PWs)   bands (ev):

   -23.3465 -23.3465  -9.1710  -9.1710  -8.6789  -8.6789  -8.6425  -8.6425
    -4.9357  -4.9357  -3.8105  -3.8105  -1.0188  -1.0188  -0.3532  -0.3532
     0.2523   0.2523   0.5295   0.5295   0.6729   0.6729   1.1221   1.1221

          k = 0.2526 0.0000 0.0000 ( 23153 PWs)   bands (ev):

   -23.3661 -23.3574  -8.9627  -8.8759  -8.7130  -8.6842  -8.5820  -8.5247
    -5.5653  -4.7663  -3.9842  -3.9503  -1.3042  -0.3717  -0.3495  -0.2166
     0.3420   0.4335   0.4911   0.6320   0.6647   0.6822   1.1403   1.1776

          k = 0.2526 0.0000 0.3580 ( 23124 PWs)   bands (ev):

   -23.3572 -23.3510  -8.9387  -8.9196  -8.8368  -8.7506  -8.6707  -8.6261
    -5.0557  -4.4315  -4.1818  -4.1771  -1.0708  -0.7879  -0.6324  -0.0845
    -0.0754   0.2632   0.5233   0.6741   0.8040   0.9319   1.1869   1.2151

          k = 0.2526 0.0000-0.7160 ( 23160 PWs)   bands (ev):

   -23.3465 -23.3465  -9.1618  -9.1618  -8.7069  -8.7069  -8.6444  -8.6444
    -4.5205  -4.5205  -4.2128  -4.2128  -1.3570  -1.3570  -0.3202  -0.3201
     0.2771   0.2773   0.7067   0.7068   0.8746   0.8748   1.1185   1.1186

          k = 0.2526 0.2434 0.0000 ( 23134 PWs)   bands (ev):

   -23.3648 -23.3586  -8.9990  -8.8500  -8.7821  -8.6192  -8.5731  -8.5327
    -5.4025  -4.6973  -4.2938  -3.9967  -0.9595  -0.5952  -0.3803   0.0991
     0.1543   0.2058   0.6011   0.7619   0.7976   0.8546   0.8768   1.0796

          k = 0.2526 0.2434 0.3580 ( 23131 PWs)   bands (ev):

   -23.3563 -23.3519  -8.9438  -8.8897  -8.8892  -8.7227  -8.6879  -8.6165
    -4.9586  -4.4813  -4.2746  -4.1709  -1.0263  -0.7504  -0.6327  -0.0408
     0.1168   0.3182   0.4124   0.6541   0.8064   0.9081   1.0832   1.1793

          k = 0.2526 0.2434-0.7160 ( 23154 PWs)   bands (ev):

   -23.3465 -23.3465  -9.1703  -9.1390  -8.7383  -8.6815  -8.6555  -8.6441
    -4.7804  -4.5694  -4.1514  -3.9347  -1.3108  -1.2416  -0.3637  -0.2655
     0.2071   0.2289   0.6552   0.7206   0.8795   0.9156   1.0427   1.1057

          k = 0.2526-0.4867 0.0000 ( 23134 PWs)   bands (ev):

   -23.3617 -23.3617  -8.9700  -8.9700  -8.6624  -8.6624  -8.5525  -8.5525
    -4.9819  -4.9819  -4.2678  -4.2678  -0.6219  -0.6219  -0.1114  -0.1114
     0.0732   0.0732   0.6358   0.6358   0.9164   0.9164   0.9381   0.9381

          k = 0.2526-0.4867 0.3580 ( 23132 PWs)   bands (ev):

   -23.3541 -23.3541  -8.9375  -8.9375  -8.8076  -8.8076  -8.6333  -8.6333
    -4.7185  -4.7185  -4.2429  -4.2429  -0.9165  -0.9165  -0.2554  -0.2554
     0.2726   0.2726   0.6145   0.6145   0.7825   0.7825   1.0556   1.0556

          k = 0.2526-0.4867-0.7160 ( 23140 PWs)   bands (ev):

   -23.3464 -23.3464  -9.1490  -9.1490  -8.7141  -8.7141  -8.6525  -8.6525
    -4.7973  -4.7973  -3.9049  -3.9049  -1.1836  -1.1836  -0.3718  -0.3718
     0.3508   0.3508   0.4938   0.4938   0.9108   0.9108   1.0719   1.0719

          k =-0.5051 0.0000 0.0000 ( 23132 PWs)   bands (ev):

   -23.3617 -23.3617  -8.8420  -8.8420  -8.8053  -8.8053  -8.5530  -8.5530
    -5.0679  -5.0679  -4.0723  -4.0723  -0.8406  -0.8406   0.0136   0.0136
     0.3808   0.3808   0.4706   0.4706   0.5658   0.5658   1.0219   1.0219

          k =-0.5051 0.0000 0.3580 ( 23120 PWs)   bands (ev):

   -23.3541 -23.3541  -8.9580  -8.9580  -8.7556  -8.7556  -8.6717  -8.6717
    -4.6471  -4.6471  -4.2684  -4.2684  -0.9928  -0.9928  -0.3611  -0.3611
     0.2694   0.2694   0.4994   0.4994   0.9191   0.9191   1.1727   1.1727

          k =-0.5051 0.0000-0.7160 ( 23144 PWs)   bands (ev):

   -23.3464 -23.3464  -9.1850  -9.1850  -8.6911  -8.6911  -8.6395  -8.6395
    -4.5619  -4.5619  -4.1243  -4.1243  -1.5991  -1.5991   0.0242   0.0242
     0.2736   0.2736   0.5085   0.5085   1.0739   1.0739   1.0842   1.0842

          k =-0.5051 0.2434 0.0000 ( 23156 PWs)   bands (ev):

   -23.3616 -23.3616  -8.9690  -8.9690  -8.6716  -8.6716  -8.5524  -8.5524
    -5.0306  -5.0306  -4.1563  -4.1563  -0.6959  -0.6959   0.0386   0.0386
     0.1499   0.1499   0.3863   0.3863   0.8279   0.8279   0.9830   0.9830

          k =-0.5051 0.2434 0.3580 ( 23120 PWs)   bands (ev):

   -23.3540 -23.3540  -8.9429  -8.9429  -8.8124  -8.8124  -8.6327  -8.6327
    -4.5972  -4.5972  -4.3260  -4.3260  -0.9945  -0.9945  -0.2938  -0.2938
     0.2769   0.2769   0.5684   0.5684   0.8871   0.8871   1.0863   1.0863

          k =-0.5051 0.2434-0.7160 ( 23088 PWs)   bands (ev):

   -23.3464 -23.3464  -9.1568  -9.1568  -8.7174  -8.7174  -8.6528  -8.6528
    -4.5914  -4.5914  -4.0807  -4.0807  -1.4767  -1.4767  -0.1912  -0.1912
     0.3114   0.3114   0.5983   0.5983   0.9920   0.9920   1.1214   1.1214

          k =-0.5051-0.4867 0.0000 ( 23148 PWs)   bands (ev):

   -23.3616 -23.3616  -9.0266  -9.0266  -8.6072  -8.6072  -8.5518  -8.5518
    -4.9865  -4.9865  -4.2448  -4.2448  -0.4795  -0.4795  -0.1401  -0.1401
     0.0323   0.0323   0.6033   0.6033   0.7664   0.7664   0.9774   0.9774

          k =-0.5051-0.4867 0.3580 ( 23108 PWs)   bands (ev):

   -23.3540 -23.3540  -8.9167  -8.9167  -8.8635  -8.8635  -8.6104  -8.6104
    -4.5070  -4.5070  -4.4234  -4.4234  -0.9771  -0.9771  -0.3215  -0.3215
     0.5127   0.5127   0.5749   0.5749   0.8214   0.8214   0.9413   0.9413

          k =-0.5051-0.4867-0.7160 ( 23104 PWs)   bands (ev):

   -23.3464 -23.3464  -9.1237  -9.1237  -8.7523  -8.7523  -8.6622  -8.6622
    -4.6175  -4.6175  -4.0398  -4.0398  -1.2943  -1.2943  -0.5173  -0.5173
     0.5962   0.5962   0.6503   0.6503   0.8426   0.8426   1.0604   1.0604

     highest occupied level (ev):     1.2712

!    total energy              =    -156.47331508 Ry
     estimated scf accuracy    <          4.8E-14 Ry

     The total energy is the sum of the following terms:
     one-electron contribution =     -17.49797179 Ry
     hartree contribution      =      23.90773851 Ry
     xc contribution           =     -49.22232808 Ry
     ewald contribution        =    -113.66075373 Ry

     convergence has been achieved in  13 iterations

     Forces acting on atoms (cartesian axes, Ry/au):

     atom    1 type  2   force =     0.00000000    0.00000000   -0.00000407
     atom    2 type  2   force =     0.00000000    0.00000000    0.00000407
     atom    3 type  1   force =     0.00000022   -0.00000003    0.00000601
     atom    4 type  1   force =    -0.00000022    0.00000003    0.00000601
     atom    5 type  1   force =     0.00000022    0.00000003   -0.00000601
     atom    6 type  1   force =    -0.00000022   -0.00000003   -0.00000601
     atom    7 type  3   force =     0.00000084    0.00000074   -0.00000262
     atom    8 type  3   force =    -0.00000084   -0.00000074   -0.00000262
     atom    9 type  3   force =     0.00000084   -0.00000074    0.00000262
     atom   10 type  3   force =    -0.00000084    0.00000074    0.00000262
     atom   11 type  3   force =    -0.00000004   -0.00000123   -0.00000935
     atom   12 type  3   force =     0.00000004    0.00000123   -0.00000935
     atom   13 type  3   force =    -0.00000004    0.00000123    0.00000935
     atom   14 type  3   force =     0.00000004   -0.00000123    0.00000935
     atom   15 type  3   force =    -0.00000262    0.00000754    0.00000440
     atom   16 type  3   force =     0.00000262   -0.00000754    0.00000440
     atom   17 type  3   force =    -0.00000262   -0.00000754   -0.00000440
     atom   18 type  3   force =     0.00000262    0.00000754   -0.00000440
     atom   19 type  3   force =    -0.00000227    0.00000621    0.00000203
     atom   20 type  3   force =     0.00000227   -0.00000621    0.00000203
     atom   21 type  3   force =    -0.00000227   -0.00000621   -0.00000203
     atom   22 type  3   force =     0.00000227    0.00000621   -0.00000203

     Total force =     0.000033     Total SCF correction =     0.000000


     Computing stress (Cartesian axis) and pressure

          total   stress  (Ry/bohr**3)                   (kbar)     P=        8.37
   0.00005693   0.00000000   0.00000000            8.37        0.00        0.00
   0.00000000   0.00005693   0.00000000            0.00        8.37        0.00
   0.00000000   0.00000000   0.00005693            0.00        0.00        8.37


     Writing all to output data dir ./pwscf.save/ :
     XML data file, charge density, pseudopotentials, collected wavefunctions

     init_run     :     14.38s CPU     17.21s WALL (       2 calls)
     electrons    :   5493.26s CPU   5541.86s WALL (      56 calls)
     update_pot   :      9.24s CPU     10.36s WALL (      54 calls)
     forces       :    189.74s CPU    191.48s WALL (      56 calls)
     stress       :    455.36s CPU    457.34s WALL (      56 calls)

     Called by init_run:
     wfcinit      :     12.24s CPU     12.42s WALL (       2 calls)
     potinit      :      0.54s CPU      1.58s WALL (       2 calls)
     hinit0       :      0.76s CPU      2.22s WALL (       2 calls)

     Called by electrons:
     c_bands      :   4735.91s CPU   4770.72s WALL (     414 calls)
     sum_band     :    668.83s CPU    676.25s WALL (     414 calls)
     v_of_rho     :     41.88s CPU     44.92s WALL (     423 calls)
     newd         :     46.87s CPU     48.14s WALL (     423 calls)
     mix_rho      :      5.24s CPU      5.74s WALL (     414 calls)

     Called by c_bands:
     init_us_2    :    111.98s CPU    113.82s WALL (   25434 calls)
     cegterg      :   4560.98s CPU   4593.90s WALL (   11178 calls)

     Called by *egterg:
     cdiaghg      :     70.78s CPU     71.45s WALL (   44056 calls)
     h_psi        :   3133.64s CPU   3160.52s WALL (   46837 calls)
     s_psi        :    749.13s CPU    751.53s WALL (   46837 calls)
     g_psi        :      9.43s CPU      9.51s WALL (   35605 calls)

     Called by h_psi:
     h_psi:calbec :    786.66s CPU    789.72s WALL (   46837 calls)
     vloc_psi     :   1587.37s CPU   1609.35s WALL (   46837 calls)
     add_vuspsi   :    750.40s CPU    752.65s WALL (   46837 calls)

     General routines
     calbec       :   1265.96s CPU   1270.54s WALL (   65575 calls)
     fft          :     30.33s CPU     36.96s WALL (    6888 calls)
     ffts         :      1.78s CPU      2.94s WALL (     837 calls)
     fftw         :   1429.69s CPU   1447.59s WALL ( 1919520 calls)
     interpolate  :      3.18s CPU      4.62s WALL (     423 calls)

     Parallel routines

     PWSCF        :      1h42m CPU      1h43m WALL


   This run was terminated on:  15:57:58  12Jul2024            

=------------------------------------------------------------------------------=
   JOB DONE.
=------------------------------------------------------------------------------=
