
     Program PWSCF v.7.3.1 starts on 12Aug2024 at 11:12:54 

     This program is part of the open-source Quantum ESPRESSO suite
     for quantum simulation of materials; please cite
         "P. Giannozzi et al., J. Phys.:Condens. Matter 21 395502 (2009);
         "P. Giannozzi et al., J. Phys.:Condens. Matter 29 465901 (2017);
         "P. Giannozzi et al., J. Chem. Phys. 152 154105 (2020);
          URL http://www.quantum-espresso.org", 
     in publications or presentations arising from this work. More details at
     http://www.quantum-espresso.org/quote

     Parallel version (MPI), running on    24 processors

     MPI processes distributed on     1 nodes
     93522 MiB available memory on the printing compute node when the environment starts

     Waiting for input...
     Reading input from standard input

     Current dimensions of program PWSCF are:
     Max number of different atomic species (ntypx) = 10
     Max number of k-points (npk) =  40000
     Max angular momentum in pseudopotentials (lmaxx) =  4

     R & G space division:  proc/nbgrp/npool/nimage =      24
     Subspace diagonalization in iterative solution of the eigenvalue problem:
     a serial algorithm will be used


     Parallelization info
     --------------------
     sticks:   dense  smooth     PW     G-vecs:    dense   smooth      PW
     Min         475     237     64                24869     8797    1238
     Max         476     239     65                24872     8798    1241
     Sum       11417    5713   1545               596887   211147   29725

     Using Slab Decomposition


     Title: 
     pre-ph                                                                     


     bravais-lattice index     =            8
     lattice parameter (alat)  =      13.4192  a.u.
     unit-cell volume          =    1562.5325 (a.u.)^3
     number of atoms/cell      =           22
     number of atomic types    =            3
     number of electrons       =        48.00
     number of Kohn-Sham states=           24
     kinetic-energy cutoff     =     100.0000  Ry
     charge density cutoff     =     800.0000  Ry
     scf convergence threshold =      1.0E-10
     mixing beta               =       0.7000
     number of iterations used =            8  plain     mixing
     Exchange-correlation= PBESOL
                           (   1   4  10   8   0   0   0)

     celldm(1)=  13.419166  celldm(2)=   0.995642  celldm(3)=   0.649455
     celldm(4)=   0.000000  celldm(5)=   0.000000  celldm(6)=   0.000000

     crystal axes: (cart. coord. in units of alat)
               a(1) = (   1.000000   0.000000   0.000000 )  
               a(2) = (   0.000000   0.995642   0.000000 )  
               a(3) = (   0.000000   0.000000   0.649455 )  

     reciprocal axes: (cart. coord. in units 2 pi/alat)
               b(1) = (  1.000000  0.000000  0.000000 )  
               b(2) = (  0.000000  1.004377  0.000000 )  
               b(3) = (  0.000000  0.000000  1.539752 )  


     PseudoPot. # 1 for B  read from file:
     /home/mehlhorn/pseudos/b_pbesol_v1.4.uspp.F.UPF
     MD5 check sum: 369b69bef2c3aeed4453bd8b804fd6a8
     Pseudo is Ultrasoft + core correction, Zval =  3.0
     Generated by new atomic code, or converted to UPF format
     Using radial grid of  781 points,  4 beta functions with: 
                l(1) =   0
                l(2) =   0
                l(3) =   1
                l(4) =   1
     Q(r) pseudized with  8 coefficients,  rinner =    1.100   1.100   1.100


     PseudoPot. # 2 for Ba read from file:
     /home/mehlhorn/pseudos/Ba.nc.z_10.oncvpsp4.dojo.v4-sp.upf
     MD5 check sum: c10ed334bb677c0554edec7181ce9143
     Pseudo is Norm-conserving + core correction, Zval = 10.0
     Generated using ONCVPSP code by D. R. Hamann
     Using radial grid of 1938 points,  8 beta functions with: 
                l(1) =   0
                l(2) =   0
                l(3) =   1
                l(4) =   1
                l(5) =   2
                l(6) =   2
                l(7) =   3
                l(8) =   3

     PseudoPot. # 3 for H  read from file:
     /home/mehlhorn/pseudos/H_ONCV_PBEsol-1.0.upf
     MD5 check sum: 398ef8f67c0a7342c05c87c5e19ea467
     Pseudo is Norm-conserving, Zval =  1.0
     Generated using ONCVPSP code by D. R. Hamann
     Using radial grid of 1180 points,  2 beta functions with: 
                l(1) =   0
                l(2) =   0

     atomic species   valence    mass     pseudopotential
     B                 3.00    10.81100     B ( 1.00)
     Ba               10.00   137.32700     Ba( 1.00)
     H                 1.00     1.00794     H ( 1.00)

      4 Sym. Ops. (no inversion) found ( 2 have fractional translation)



   Cartesian axes

     site n.     atom                  positions (alat units)
         1        Ba     tau(   1) = (   0.5000000   0.4978210   0.3247278  )
         2        Ba     tau(   2) = (   0.0000000   0.0000000   0.6494551  )
         3        B      tau(   3) = (   0.6304292   0.2557630   0.0000071  )
         4        B      tau(   4) = (   0.3695708   0.7398791   0.0000071  )
         5        B      tau(   5) = (   0.1304292   0.2420581   0.3247206  )
         6        B      tau(   6) = (   0.8695708   0.7535840   0.3247206  )
         7        H      tau(   7) = (   0.4589234   0.2831461  -0.0000063  )
         8        H      tau(   8) = (   0.5410766   0.7124960  -0.0000063  )
         9        H      tau(   9) = (   0.9589234   0.2146750   0.3247339  )
        10        H      tau(  10) = (   0.0410766   0.7809671   0.3247339  )
        11        H      tau(  11) = (   0.7148392   0.4082360   0.0000082  )
        12        H      tau(  12) = (   0.2851608   0.5874061   0.0000082  )
        13        H      tau(  13) = (   0.2148392   0.0895850   0.3247195  )
        14        H      tau(  14) = (   0.7851608   0.9060570   0.3247195  )
        15        H      tau(  15) = (   0.6705875   0.1673911   0.5059715  )
        16        H      tau(  16) = (   0.3294125   0.8282510   0.5059715  )
        17        H      tau(  17) = (   0.1705875   0.3304300   0.4682115  )
        18        H      tau(  18) = (   0.8294125   0.6652121   0.4682115  )
        19        H      tau(  19) = (   0.3294167   0.8282497   0.1435013  )
        20        H      tau(  20) = (   0.6705833   0.1673923   0.1435013  )
        21        H      tau(  21) = (   0.8294167   0.6652134   0.1812264  )
        22        H      tau(  22) = (   0.1705833   0.3304287   0.1812264  )

     number of k points=    27
                       cart. coord. in units 2pi/alat
        k(    1) = (   0.0000000   0.0000000   0.0000000), wk =   0.0160000
        k(    2) = (   0.0000000   0.0000000   0.3079504), wk =   0.0320000
        k(    3) = (   0.0000000   0.0000000   0.6159007), wk =   0.0320000
        k(    4) = (   0.0000000   0.2008754   0.0000000), wk =   0.0320000
        k(    5) = (   0.0000000   0.2008754   0.3079504), wk =   0.0640000
        k(    6) = (   0.0000000   0.2008754   0.6159007), wk =   0.0640000
        k(    7) = (   0.0000000   0.4017508   0.0000000), wk =   0.0320000
        k(    8) = (   0.0000000   0.4017508   0.3079504), wk =   0.0640000
        k(    9) = (   0.0000000   0.4017508   0.6159007), wk =   0.0640000
        k(   10) = (   0.2000000   0.0000000   0.0000000), wk =   0.0320000
        k(   11) = (   0.2000000   0.0000000   0.3079504), wk =   0.0640000
        k(   12) = (   0.2000000   0.0000000   0.6159007), wk =   0.0640000
        k(   13) = (   0.2000000   0.2008754   0.0000000), wk =   0.0640000
        k(   14) = (   0.2000000   0.2008754   0.3079504), wk =   0.1280000
        k(   15) = (   0.2000000   0.2008754   0.6159007), wk =   0.1280000
        k(   16) = (   0.2000000   0.4017508   0.0000000), wk =   0.0640000
        k(   17) = (   0.2000000   0.4017508   0.3079504), wk =   0.1280000
        k(   18) = (   0.2000000   0.4017508   0.6159007), wk =   0.1280000
        k(   19) = (   0.4000000   0.0000000   0.0000000), wk =   0.0320000
        k(   20) = (   0.4000000   0.0000000   0.3079504), wk =   0.0640000
        k(   21) = (   0.4000000   0.0000000   0.6159007), wk =   0.0640000
        k(   22) = (   0.4000000   0.2008754   0.0000000), wk =   0.0640000
        k(   23) = (   0.4000000   0.2008754   0.3079504), wk =   0.1280000
        k(   24) = (   0.4000000   0.2008754   0.6159007), wk =   0.1280000
        k(   25) = (   0.4000000   0.4017508   0.0000000), wk =   0.0640000
        k(   26) = (   0.4000000   0.4017508   0.3079504), wk =   0.1280000
        k(   27) = (   0.4000000   0.4017508   0.6159007), wk =   0.1280000

     Dense  grid:   596887 G-vectors     FFT dimensions: ( 128, 128,  80)

     Smooth grid:   211147 G-vectors     FFT dimensions: (  90,  90,  60)

     Estimated max dynamical RAM per process >      71.41 MB

     Estimated total dynamical RAM >       1.67 GB

     Initial potential from superposition of free atoms

     starting charge      47.9682, renormalised to      48.0000
     Starting wfcs are   42 randomized atomic wfcs

     total cpu time spent up to now is       12.4 secs

     Self-consistent Calculation

     iteration #  1     ecut=   100.00 Ry     beta= 0.70
     Davidson diagonalization with overlap
     ethr =  1.00E-02,  avg # of iterations =  2.0

     total cpu time spent up to now is       30.5 secs

     total energy              =    -155.91112506 Ry
     estimated scf accuracy    <       2.15471687 Ry

     iteration #  2     ecut=   100.00 Ry     beta= 0.70
     Davidson diagonalization with overlap
     ethr =  4.49E-03,  avg # of iterations =  2.0

     total cpu time spent up to now is       47.9 secs

     total energy              =    -156.40274759 Ry
     estimated scf accuracy    <       0.37845291 Ry

     iteration #  3     ecut=   100.00 Ry     beta= 0.70
     Davidson diagonalization with overlap
     ethr =  7.88E-04,  avg # of iterations =  2.0

     total cpu time spent up to now is       65.3 secs

     total energy              =    -156.46649930 Ry
     estimated scf accuracy    <       0.00491572 Ry

     iteration #  4     ecut=   100.00 Ry     beta= 0.70
     Davidson diagonalization with overlap
     ethr =  1.02E-05,  avg # of iterations =  5.1

     total cpu time spent up to now is       90.6 secs

     total energy              =    -156.46953754 Ry
     estimated scf accuracy    <       0.00180515 Ry

     iteration #  5     ecut=   100.00 Ry     beta= 0.70
     Davidson diagonalization with overlap
     ethr =  3.76E-06,  avg # of iterations =  3.3

     total cpu time spent up to now is      108.6 secs

     total energy              =    -156.47015878 Ry
     estimated scf accuracy    <       0.00018939 Ry

     iteration #  6     ecut=   100.00 Ry     beta= 0.70
     Davidson diagonalization with overlap
     ethr =  3.95E-07,  avg # of iterations =  4.0

     total cpu time spent up to now is      128.7 secs

     total energy              =    -156.47023216 Ry
     estimated scf accuracy    <       0.00000128 Ry

     iteration #  7     ecut=   100.00 Ry     beta= 0.70
     Davidson diagonalization with overlap
     ethr =  2.66E-09,  avg # of iterations = 10.8

     total cpu time spent up to now is      176.0 secs

     total energy              =    -156.47024391 Ry
     estimated scf accuracy    <       0.00000094 Ry

     iteration #  8     ecut=   100.00 Ry     beta= 0.70
     Davidson diagonalization with overlap
     ethr =  1.95E-09,  avg # of iterations =  2.0

     total cpu time spent up to now is      192.7 secs

     total energy              =    -156.47024396 Ry
     estimated scf accuracy    <       0.00000010 Ry

     iteration #  9     ecut=   100.00 Ry     beta= 0.70
     Davidson diagonalization with overlap
     ethr =  2.10E-10,  avg # of iterations =  5.2

     total cpu time spent up to now is      214.6 secs

     total energy              =    -156.47024401 Ry
     estimated scf accuracy    <       0.00000002 Ry

     iteration # 10     ecut=   100.00 Ry     beta= 0.70
     Davidson diagonalization with overlap
     ethr =  4.56E-11,  avg # of iterations =  3.6

     total cpu time spent up to now is      233.3 secs

     total energy              =    -156.47024401 Ry
     estimated scf accuracy    <          1.6E-10 Ry

     iteration # 11     ecut=   100.00 Ry     beta= 0.70
     Davidson diagonalization with overlap
     ethr =  3.31E-13,  avg # of iterations =  8.5

     total cpu time spent up to now is      273.5 secs

     total energy              =    -156.47024401 Ry
     estimated scf accuracy    <          1.2E-10 Ry

     iteration # 12     ecut=   100.00 Ry     beta= 0.70
     Davidson diagonalization with overlap
     ethr =  2.41E-13,  avg # of iterations =  2.4

     total cpu time spent up to now is      291.4 secs

     End of self-consistent calculation

          k = 0.0000 0.0000 0.0000 ( 26367 PWs)   bands (ev):

   -24.5666 -24.5609 -10.0548 -10.0090  -9.8214  -9.7895  -9.7319  -9.6847
    -6.4508  -5.6166  -5.0745  -5.0059  -2.1775  -1.2320  -1.1801  -0.8785
    -0.8200  -0.6447  -0.5781  -0.4155  -0.1606   0.0766   0.1290   0.1378

          k = 0.0000 0.0000 0.3080 ( 26412 PWs)   bands (ev):

   -24.5613 -24.5567  -9.9951  -9.9585  -9.9151  -9.8902  -9.8075  -9.7835
    -6.1112  -5.4084  -5.1951  -5.1416  -1.8875  -1.5665  -1.2869  -1.0498
    -0.7863  -0.7216  -0.4681  -0.3338  -0.1567  -0.0232  -0.0120   0.0870

          k = 0.0000 0.0000 0.6159 ( 26392 PWs)   bands (ev):

   -24.5522 -24.5504 -10.1756 -10.1709  -9.8739  -9.8568  -9.8027  -9.7913
    -5.4879  -5.3930  -5.3743  -5.1902  -1.7635  -1.6447  -1.5970  -1.3230
    -0.7460  -0.6967  -0.4164  -0.2935  -0.1786  -0.1228  -0.0526   0.0031

          k = 0.0000 0.2009 0.0000 ( 26389 PWs)   bands (ev):

   -24.5661 -24.5614 -10.0395  -9.9935  -9.8444  -9.8089  -9.7273  -9.6892
    -6.3489  -5.6069  -5.1925  -5.0546  -2.0074  -1.3764  -1.2422  -0.6986
    -0.6522  -0.6337  -0.6071  -0.3719  -0.1740  -0.0987   0.0718   0.0835

          k = 0.0000 0.2009 0.3080 ( 26402 PWs)   bands (ev):

   -24.5609 -24.5572  -9.9929  -9.9451  -9.9091  -9.9035  -9.8081  -9.7960
    -6.0343  -5.3863  -5.2984  -5.1704  -1.7736  -1.5898  -1.3821  -0.8708
    -0.7400  -0.6858  -0.6165  -0.2762  -0.1584  -0.0336  -0.0194  -0.0150

          k = 0.0000 0.2009 0.6159 ( 26387 PWs)   bands (ev):

   -24.5520 -24.5506 -10.1816 -10.1775  -9.8606  -9.8491  -9.8030  -9.7958
    -5.6000  -5.5122  -5.2344  -5.0936  -1.8126  -1.7706  -1.4772  -1.2588
    -0.6934  -0.5652  -0.4286  -0.2916  -0.2013  -0.1991  -0.0609  -0.0563

          k = 0.0000 0.4018 0.0000 ( 26396 PWs)   bands (ev):

   -24.5646 -24.5629  -9.9985  -9.9674  -9.8831  -9.8556  -9.7155  -9.7009
    -6.0778  -5.7463  -5.2837  -5.1747  -1.7178  -1.5544  -1.1010  -0.6600
    -0.6458  -0.6258  -0.3955  -0.3585  -0.2913  -0.2183  -0.0645  -0.0194

          k = 0.0000 0.4018 0.3080 ( 26409 PWs)   bands (ev):

   -24.5597 -24.5583  -9.9784  -9.9469  -9.9123  -9.8897  -9.8189  -9.8165
    -5.8260  -5.5488  -5.3237  -5.2421  -1.6375  -1.6232  -1.2865  -0.9435
    -0.6747  -0.6264  -0.5226  -0.3073  -0.2159  -0.2139  -0.0228  -0.0168

          k = 0.0000 0.4018 0.6159 ( 26391 PWs)   bands (ev):

   -24.5516 -24.5510 -10.1900 -10.1882  -9.8357  -9.8334  -9.8077  -9.8068
    -5.6746  -5.6416  -5.0860  -5.0298  -1.8848  -1.8812  -1.2879  -1.1811
    -0.5841  -0.4753  -0.4027  -0.3788  -0.2580  -0.2113  -0.1644  -0.0756

          k = 0.2000 0.0000 0.0000 ( 26407 PWs)   bands (ev):

   -24.5661 -24.5614 -10.0360  -9.9960  -9.8415  -9.8137  -9.7274  -9.6892
    -6.3545  -5.6477  -5.0964  -5.0834  -2.0478  -1.1674  -1.1392  -1.0524
    -0.6154  -0.5955  -0.5721  -0.4216  -0.2054  -0.1222   0.0603   0.0927

          k = 0.2000 0.0000 0.3080 ( 26403 PWs)   bands (ev):

   -24.5609 -24.5571  -9.9800  -9.9655  -9.9058  -9.8993  -9.8183  -9.7876
    -6.0309  -5.4204  -5.2134  -5.2115  -1.8010  -1.5442  -1.3621  -0.9305
    -0.7727  -0.6838  -0.5494  -0.2932  -0.2794  -0.0373   0.0097   0.0449

          k = 0.2000 0.0000 0.6159 ( 26377 PWs)   bands (ev):

   -24.5520 -24.5506 -10.1828 -10.1787  -9.8650  -9.8447  -9.8072  -9.7919
    -5.5365  -5.4427  -5.3089  -5.1431  -1.9498  -1.8210  -1.4105  -1.1671
    -0.6684  -0.5825  -0.4221  -0.3392  -0.1806  -0.1431  -0.1023  -0.0071

          k = 0.2000 0.2009 0.0000 ( 26372 PWs)   bands (ev):

   -24.5656 -24.5619 -10.0454  -9.9697  -9.8796  -9.7985  -9.7237  -9.6928
    -6.2753  -5.6566  -5.2147  -5.0747  -1.9092  -1.3646  -1.1748  -0.8237
    -0.6596  -0.5965  -0.4443  -0.3659  -0.2753  -0.1918  -0.0182   0.0810

          k = 0.2000 0.2009 0.3080 ( 26371 PWs)   bands (ev):

   -24.5605 -24.5575  -9.9889  -9.9479  -9.9265  -9.8872  -9.8200  -9.7891
    -5.9673  -5.4130  -5.3227  -5.1961  -1.7185  -1.5652  -1.4121  -0.8382
    -0.7862  -0.6686  -0.5375  -0.3078  -0.2503  -0.0741  -0.0265   0.0324

          k = 0.2000 0.2009 0.6159 ( 26398 PWs)   bands (ev):

   -24.5519 -24.5507 -10.1884 -10.1749  -9.8704  -9.8314  -9.8102  -9.7945
    -5.6165  -5.4411  -5.2905  -5.0790  -1.9591  -1.8150  -1.4013  -1.2108
    -0.6141  -0.5187  -0.4168  -0.3003  -0.2590  -0.1546  -0.1172   0.0042

          k = 0.2000 0.4018 0.0000 ( 26367 PWs)   bands (ev):

   -24.5645 -24.5630 -10.0321  -9.9893  -9.8646  -9.8167  -9.7140  -9.7022
    -6.0621  -5.7984  -5.2576  -5.1620  -1.6639  -1.5218  -1.0931  -0.6993
    -0.6878  -0.6594  -0.4911  -0.2659  -0.2593  -0.1998  -0.1231  -0.0113

          k = 0.2000 0.4018 0.3080 ( 26394 PWs)   bands (ev):

   -24.5596 -24.5584  -9.9862  -9.9626  -9.9153  -9.8868  -9.8152  -9.7981
    -5.7953  -5.5682  -5.3220  -5.2497  -1.6317  -1.6012  -1.3123  -1.0281
    -0.6568  -0.5721  -0.5117  -0.3256  -0.2145  -0.1419  -0.0592  -0.0233

          k = 0.2000 0.4018 0.6159 ( 26398 PWs)   bands (ev):

   -24.5515 -24.5511 -10.1875 -10.1795  -9.8603  -9.8377  -9.8056  -9.7982
    -5.6450  -5.5757  -5.1414  -5.0583  -1.9414  -1.8660  -1.3398  -1.2518
    -0.5939  -0.4992  -0.3600  -0.2586  -0.2485  -0.1687  -0.1414  -0.0420

          k = 0.4000 0.0000 0.0000 ( 26390 PWs)   bands (ev):

   -24.5646 -24.5629  -9.9893  -9.9673  -9.8837  -9.8669  -9.7155  -9.7010
    -6.1046  -5.8140  -5.1673  -5.1458  -1.7563  -1.4409  -0.9460  -0.7283
    -0.6045  -0.5623  -0.5579  -0.4068  -0.3881  -0.3125  -0.1257  -0.0282

          k = 0.4000 0.0000 0.3080 ( 26367 PWs)   bands (ev):

   -24.5597 -24.5583  -9.9624  -9.9453  -9.9334  -9.8991  -9.8238  -9.8031
    -5.8191  -5.5604  -5.2779  -5.2499  -1.6563  -1.5149  -1.3441  -0.9826
    -0.7008  -0.5844  -0.5800  -0.4625  -0.2198  -0.1191  -0.0175  -0.0076

          k = 0.4000 0.0000 0.6159 ( 26406 PWs)   bands (ev):

   -24.5516 -24.5510 -10.1930 -10.1913  -9.8453  -9.8288  -9.8125  -9.7981
    -5.5633  -5.5292  -5.1914  -5.1240  -2.0801  -2.0247  -1.1787  -1.0422
    -0.5738  -0.4872  -0.4306  -0.3325  -0.2871  -0.1214  -0.0896  -0.0783

          k = 0.4000 0.2009 0.0000 ( 26368 PWs)   bands (ev):

   -24.5644 -24.5630 -10.0300  -9.9870  -9.8678  -9.8196  -9.7140  -9.7022
    -6.0797  -5.8354  -5.2000  -5.1338  -1.6855  -1.4616  -0.9859  -0.7380
    -0.6481  -0.6142  -0.5909  -0.3866  -0.3194  -0.2463  -0.1286   0.0033

          k = 0.4000 0.2009 0.3080 ( 26374 PWs)   bands (ev):

   -24.5596 -24.5584  -9.9813  -9.9602  -9.9244  -9.8926  -9.8139  -9.7946
    -5.7914  -5.5736  -5.3008  -5.2488  -1.6352  -1.5270  -1.3719  -1.0620
    -0.6402  -0.5772  -0.5119  -0.3967  -0.2285  -0.1346  -0.0464  -0.0092

          k = 0.4000 0.2009 0.6159 ( 26389 PWs)   bands (ev):

   -24.5515 -24.5511 -10.1894 -10.1814  -9.8619  -9.8392  -9.8049  -9.7963
    -5.5779  -5.4806  -5.2296  -5.1173  -2.0495  -1.9884  -1.2372  -1.1740
    -0.5626  -0.4820  -0.4148  -0.3454  -0.2102  -0.1402  -0.0757   0.0063

          k = 0.4000 0.4018 0.0000 ( 26347 PWs)   bands (ev):

   -24.5640 -24.5635 -10.0544 -10.0371  -9.8145  -9.7936  -9.7102  -9.7057
    -6.0069  -5.9084  -5.2004  -5.1604  -1.5500  -1.4834  -1.0468  -0.8811
    -0.7114  -0.6969  -0.4818  -0.3186  -0.2143  -0.1864  -0.1113  -0.0322

          k = 0.4000 0.4018 0.3080 ( 26357 PWs)   bands (ev):

   -24.5592 -24.5588  -9.9959  -9.9874  -9.9077  -9.8948  -9.7947  -9.7862
    -5.7184  -5.6304  -5.3040  -5.2732  -1.5991  -1.5555  -1.3574  -1.2237
    -0.5359  -0.5175  -0.4245  -0.3220  -0.2234  -0.1630  -0.1019  -0.0379

          k = 0.4000 0.4018 0.6159 ( 26411 PWs)   bands (ev):

   -24.5514 -24.5512 -10.1766 -10.1713  -9.8754  -9.8637  -9.7974  -9.7954
    -5.5459  -5.4826  -5.2206  -5.1522  -1.9640  -1.9206  -1.3987  -1.3627
    -0.5362  -0.4826  -0.3019  -0.2867  -0.1745  -0.1719  -0.0158   0.0238

     highest occupied level (ev):     0.1378

!    total energy              =    -156.47024401 Ry
     estimated scf accuracy    <          1.2E-12 Ry

     The total energy is the sum of the following terms:
     one-electron contribution =     -32.88562708 Ry
     hartree contribution      =      29.70244123 Ry
     xc contribution           =     -49.05962824 Ry
     ewald contribution        =    -104.22742992 Ry

     convergence has been achieved in  12 iterations

     Writing all to output data dir ./pwscf.save/ :
     XML data file, charge density, pseudopotentials, collected wavefunctions

     init_run     :     10.80s CPU     12.01s WALL (       1 calls)
     electrons    :    277.01s CPU    279.12s WALL (       1 calls)

     Called by init_run:
     wfcinit      :      8.50s CPU      8.56s WALL (       1 calls)
     potinit      :      0.57s CPU      1.09s WALL (       1 calls)
     hinit0       :      0.77s CPU      1.36s WALL (       1 calls)

     Called by electrons:
     c_bands      :    247.90s CPU    249.47s WALL (      12 calls)
     sum_band     :     24.67s CPU     25.01s WALL (      12 calls)
     v_of_rho     :      1.86s CPU      1.96s WALL (      13 calls)
     newd         :      2.43s CPU      2.47s WALL (      13 calls)
     mix_rho      :      0.24s CPU      0.27s WALL (      12 calls)

     Called by c_bands:
     init_us_2    :      4.76s CPU      4.81s WALL (     675 calls)
     cegterg      :    225.81s CPU    227.30s WALL (     324 calls)

     Called by *egterg:
     cdiaghg      :      3.35s CPU      3.37s WALL (    1702 calls)
     h_psi        :    164.41s CPU    165.67s WALL (    1729 calls)
     s_psi        :     29.52s CPU     29.63s WALL (    1729 calls)
     g_psi        :      0.63s CPU      0.63s WALL (    1378 calls)

     Called by h_psi:
     h_psi:calbec :     26.55s CPU     26.69s WALL (    1729 calls)
     vloc_psi     :    107.73s CPU    108.76s WALL (    1729 calls)
     add_vuspsi   :     29.65s CPU     29.75s WALL (    1729 calls)

     General routines
     calbec       :     33.25s CPU     33.41s WALL (    2053 calls)
     fft          :      1.53s CPU      2.22s WALL (     167 calls)
     ffts         :      0.47s CPU      0.97s WALL (      25 calls)
     fftw         :    105.97s CPU    106.95s WALL (   67928 calls)
     interpolate  :      0.53s CPU      1.03s WALL (      13 calls)

     Parallel routines

     PWSCF        :   4m48.71s CPU   4m52.82s WALL


   This run was terminated on:  11:17:47  12Aug2024            

=------------------------------------------------------------------------------=
   JOB DONE.
=------------------------------------------------------------------------------=
