
     Program PWSCF v.7.3.1 starts on 27May2024 at 17:27: 9 

     This program is part of the open-source Quantum ESPRESSO suite
     for quantum simulation of materials; please cite
         "P. Giannozzi et al., J. Phys.:Condens. Matter 21 395502 (2009);
         "P. Giannozzi et al., J. Phys.:Condens. Matter 29 465901 (2017);
         "P. Giannozzi et al., J. Chem. Phys. 152 154105 (2020);
          URL http://www.quantum-espresso.org", 
     in publications or presentations arising from this work. More details at
     http://www.quantum-espresso.org/quote

     Parallel version (MPI), running on    24 processors

     MPI processes distributed on     1 nodes
     94232 MiB available memory on the printing compute node when the environment starts

     Waiting for input...
     Reading input from standard input
Warning: card &CELL ignored
Warning: card / ignored

     Current dimensions of program PWSCF are:
     Max number of different atomic species (ntypx) = 10
     Max number of k-points (npk) =  40000
     Max angular momentum in pseudopotentials (lmaxx) =  4

     gamma-point specific algorithms are used

     R & G space division:  proc/nbgrp/npool/nimage =      24
     Subspace diagonalization in iterative solution of the eigenvalue problem:
     a serial algorithm will be used


     Parallelization info
     --------------------
     sticks:   dense  smooth     PW     G-vecs:    dense   smooth      PW
     Min         670     334     81                43582    15410    1922
     Max         672     336     84                43586    15420    1932
     Sum       16085    8037   1995              1046013   369929   46249

     Using Slab Decomposition


     Title: 
     ecut_test                                                                  


     bravais-lattice index     =            8
     lattice parameter (alat)  =      13.1993  a.u.
     unit-cell volume          =    1652.2482 (a.u.)^3
     number of atoms/cell      =           22
     number of atomic types    =            3
     number of electrons       =        48.00
     number of Kohn-Sham states=           24
     kinetic-energy cutoff     =     140.0000  Ry
     charge density cutoff     =    1120.0000  Ry
     scf convergence threshold =      1.0E-08
     mixing beta               =       0.7000
     number of iterations used =            8  plain     mixing
     Exchange-correlation= PBESOL
                           (   1   4  10   8   0   0   0)

     celldm(1)=  13.199283  celldm(2)=   1.034883  celldm(3)=   0.694277
     celldm(4)=   0.000000  celldm(5)=   0.000000  celldm(6)=   0.000000

     crystal axes: (cart. coord. in units of alat)
               a(1) = (   1.000000   0.000000   0.000000 )  
               a(2) = (   0.000000   1.034883   0.000000 )  
               a(3) = (   0.000000   0.000000   0.694277 )  

     reciprocal axes: (cart. coord. in units 2 pi/alat)
               b(1) = (  1.000000  0.000000  0.000000 )  
               b(2) = (  0.000000  0.966293  0.000000 )  
               b(3) = (  0.000000  0.000000  1.440347 )  


     PseudoPot. # 1 for B  read from file:
     /home/mehlhorn/pseudos/b_pbesol_v1.4.uspp.F.UPF
     MD5 check sum: 369b69bef2c3aeed4453bd8b804fd6a8
     Pseudo is Ultrasoft + core correction, Zval =  3.0
     Generated by new atomic code, or converted to UPF format
     Using radial grid of  781 points,  4 beta functions with: 
                l(1) =   0
                l(2) =   0
                l(3) =   1
                l(4) =   1
     Q(r) pseudized with  8 coefficients,  rinner =    1.100   1.100   1.100


     PseudoPot. # 2 for Ba read from file:
     /home/mehlhorn/pseudos/Ba.nc.z_10.oncvpsp4.dojo.v4-sp.upf
     MD5 check sum: c10ed334bb677c0554edec7181ce9143
     Pseudo is Norm-conserving + core correction, Zval = 10.0
     Generated using ONCVPSP code by D. R. Hamann
     Using radial grid of 1938 points,  8 beta functions with: 
                l(1) =   0
                l(2) =   0
                l(3) =   1
                l(4) =   1
                l(5) =   2
                l(6) =   2
                l(7) =   3
                l(8) =   3

     PseudoPot. # 3 for H  read from file:
     /home/mehlhorn/pseudos/H_ONCV_PBEsol-1.0.upf
     MD5 check sum: 398ef8f67c0a7342c05c87c5e19ea467
     Pseudo is Norm-conserving, Zval =  1.0
     Generated using ONCVPSP code by D. R. Hamann
     Using radial grid of 1180 points,  2 beta functions with: 
                l(1) =   0
                l(2) =   0

     atomic species   valence    mass     pseudopotential
     B                 3.00    10.81100     B ( 1.00)
     Ba               10.00   137.32700     Ba( 1.00)
     H                 1.00     1.00794     H ( 1.00)

      4 Sym. Ops. (no inversion) found ( 2 have fractional translation)



   Cartesian axes

     site n.     atom                  positions (alat units)
         1        Ba     tau(   1) = (   0.5000000   0.5174415   0.3471942  )
         2        Ba     tau(   2) = (   0.0000000   0.0000000   0.6942217  )
         3        B      tau(   3) = (   0.6308000   0.2628603   0.0000139  )
         4        B      tau(   4) = (   0.3692000   0.7720228   0.0000139  )
         5        B      tau(   5) = (   0.1308000   0.2545812   0.3471247  )
         6        B      tau(   6) = (   0.8692000   0.7803018   0.3471247  )
         7        H      tau(   7) = (   0.4582000   0.2939068   0.0001805  )
         8        H      tau(   8) = (   0.5418000   0.7409763   0.0001805  )
         9        H      tau(   9) = (   0.9582000   0.2235347   0.3469581  )
        10        H      tau(  10) = (   0.0418000   0.8113483   0.3469581  )
        11        H      tau(  11) = (   0.7204000   0.4141602   0.0000000  )
        12        H      tau(  12) = (   0.2796000   0.6207229   0.0000000  )
        13        H      tau(  13) = (   0.2204000   0.1032813   0.3471386  )
        14        H      tau(  14) = (   0.7796000   0.9316018   0.3471386  )
        15        H      tau(  15) = (   0.6689000   0.1713766   0.5494094  )
        16        H      tau(  16) = (   0.3311000   0.8635064   0.5494094  )
        17        H      tau(  17) = (   0.1689000   0.3460649   0.4920065  )
        18        H      tau(  18) = (   0.8311000   0.6888182   0.4920065  )
        19        H      tau(  19) = (   0.3311000   0.8635064   0.1448679  )
        20        H      tau(  20) = (   0.6689000   0.1713766   0.1448679  )
        21        H      tau(  21) = (   0.8311000   0.6888182   0.2022707  )
        22        H      tau(  22) = (   0.1689000   0.3460649   0.2022707  )

     number of k points=     1
                       cart. coord. in units 2pi/alat
        k(    1) = (   0.0000000   0.0000000   0.0000000), wk =   2.0000000

     Dense  grid:   523007 G-vectors     FFT dimensions: ( 144, 150, 100)

     Smooth grid:   184965 G-vectors     FFT dimensions: ( 100, 108,  72)

     Estimated max dynamical RAM per process >      61.53 MB

     Estimated total dynamical RAM >       1.44 GB

     Initial potential from superposition of free atoms

     starting charge      47.9682, renormalised to      48.0000
     Starting wfcs are   42 randomized atomic wfcs

     total cpu time spent up to now is        4.8 secs

     Self-consistent Calculation

     iteration #  1     ecut=   140.00 Ry     beta= 0.70
     Davidson diagonalization with overlap
     ethr =  1.00E-02,  avg # of iterations =  2.0

     total cpu time spent up to now is        5.9 secs

     total energy              =    -155.77732298 Ry
     estimated scf accuracy    <       2.37078999 Ry

     iteration #  2     ecut=   140.00 Ry     beta= 0.70
     Davidson diagonalization with overlap
     ethr =  4.94E-03,  avg # of iterations =  2.0

     total cpu time spent up to now is        7.0 secs

     total energy              =    -156.32651842 Ry
     estimated scf accuracy    <       0.43069342 Ry

     iteration #  3     ecut=   140.00 Ry     beta= 0.70
     Davidson diagonalization with overlap
     ethr =  8.97E-04,  avg # of iterations =  2.0

     total cpu time spent up to now is        8.1 secs

     total energy              =    -156.39856895 Ry
     estimated scf accuracy    <       0.00568935 Ry

     iteration #  4     ecut=   140.00 Ry     beta= 0.70
     Davidson diagonalization with overlap
     ethr =  1.19E-05,  avg # of iterations =  6.0

     total cpu time spent up to now is        9.4 secs

     total energy              =    -156.40223905 Ry
     estimated scf accuracy    <       0.00194826 Ry

     iteration #  5     ecut=   140.00 Ry     beta= 0.70
     Davidson diagonalization with overlap
     ethr =  4.06E-06,  avg # of iterations =  4.0

     total cpu time spent up to now is       10.5 secs

     total energy              =    -156.40289873 Ry
     estimated scf accuracy    <       0.00022129 Ry

     iteration #  6     ecut=   140.00 Ry     beta= 0.70
     Davidson diagonalization with overlap
     ethr =  4.61E-07,  avg # of iterations =  4.0

     total cpu time spent up to now is       11.6 secs

     total energy              =    -156.40295617 Ry
     estimated scf accuracy    <       0.00000357 Ry

     iteration #  7     ecut=   140.00 Ry     beta= 0.70
     Davidson diagonalization with overlap
     ethr =  7.44E-09,  avg # of iterations =  6.0

     total cpu time spent up to now is       12.9 secs

     total energy              =    -156.40295939 Ry
     estimated scf accuracy    <       0.00000233 Ry

     iteration #  8     ecut=   140.00 Ry     beta= 0.70
     Davidson diagonalization with overlap
     ethr =  4.85E-09,  avg # of iterations =  2.0

     total cpu time spent up to now is       14.0 secs

     total energy              =    -156.40295978 Ry
     estimated scf accuracy    <       0.00000007 Ry

     iteration #  9     ecut=   140.00 Ry     beta= 0.70
     Davidson diagonalization with overlap
     ethr =  1.55E-10,  avg # of iterations =  6.0

     total cpu time spent up to now is       15.5 secs

     total energy              =    -156.40295989 Ry
     estimated scf accuracy    <       0.00000003 Ry

     iteration # 10     ecut=   140.00 Ry     beta= 0.70
     Davidson diagonalization with overlap
     ethr =  5.64E-11,  avg # of iterations =  2.0

     total cpu time spent up to now is       16.6 secs

     End of self-consistent calculation

          k = 0.0000 0.0000 0.0000 ( 23125 PWs)   bands (ev):

   -25.2188 -25.2145 -10.5772 -10.5392 -10.4082 -10.3945 -10.3195 -10.2792
    -6.5739  -5.7917  -5.4493  -5.3178  -2.2173  -1.3834  -1.3473  -1.0218
    -0.9680  -0.9144  -0.8361  -0.8161  -0.5078  -0.1416  -0.1414  -0.0845

     highest occupied level (ev):    -0.0845

!    total energy              =    -156.40295990 Ry
     estimated scf accuracy    <          2.9E-10 Ry

     The total energy is the sum of the following terms:
     one-electron contribution =     -35.65980614 Ry
     hartree contribution      =      30.48122997 Ry
     xc contribution           =     -49.01722046 Ry
     ewald contribution        =    -102.20716326 Ry

     convergence has been achieved in  10 iterations

     Writing all to output data dir ./pwscf.save/ :
     XML data file, charge density, pseudopotentials, collected wavefunctions

     init_run     :      2.79s CPU      4.40s WALL (       1 calls)
     electrons    :     11.58s CPU     11.89s WALL (       1 calls)

     Called by init_run:
     wfcinit      :      0.24s CPU      0.25s WALL (       1 calls)
     potinit      :      0.83s CPU      1.51s WALL (       1 calls)
     hinit0       :      0.99s CPU      1.84s WALL (       1 calls)

     Called by electrons:
     c_bands      :      5.16s CPU      5.22s WALL (      10 calls)
     sum_band     :      2.28s CPU      2.32s WALL (      10 calls)
     v_of_rho     :      2.13s CPU      2.24s WALL (      11 calls)
     newd         :      1.80s CPU      1.87s WALL (      11 calls)
     mix_rho      :      0.29s CPU      0.31s WALL (      10 calls)

     Called by c_bands:
     init_us_2    :      0.09s CPU      0.09s WALL (      21 calls)
     regterg      :      4.58s CPU      4.62s WALL (      10 calls)

     Called by *egterg:
     rdiaghg      :      0.07s CPU      0.07s WALL (      46 calls)
     h_psi        :      3.39s CPU      3.43s WALL (      47 calls)
     s_psi        :      0.63s CPU      0.64s WALL (      47 calls)
     g_psi        :      0.01s CPU      0.01s WALL (      36 calls)

     Called by h_psi:
     h_psi:calbec :      0.55s CPU      0.55s WALL (      47 calls)
     vloc_psi     :      2.20s CPU      2.23s WALL (      47 calls)
     add_vuspsi   :      0.64s CPU      0.64s WALL (      47 calls)

     General routines
     calbec       :      0.70s CPU      0.71s WALL (      57 calls)
     fft          :      2.08s CPU      3.00s WALL (     119 calls)
     ffts         :      0.64s CPU      1.30s WALL (      21 calls)
     fftw         :      1.99s CPU      2.01s WALL (     944 calls)
     interpolate  :      0.74s CPU      1.41s WALL (      11 calls)

     Parallel routines

     PWSCF        :     14.70s CPU     16.80s WALL


   This run was terminated on:  17:27:26  27May2024            

=------------------------------------------------------------------------------=
   JOB DONE.
=------------------------------------------------------------------------------=
