
     Program PWSCF v.7.3.1 starts on 12Aug2024 at 11:12:54 

     This program is part of the open-source Quantum ESPRESSO suite
     for quantum simulation of materials; please cite
         "P. Giannozzi et al., J. Phys.:Condens. Matter 21 395502 (2009);
         "P. Giannozzi et al., J. Phys.:Condens. Matter 29 465901 (2017);
         "P. Giannozzi et al., J. Chem. Phys. 152 154105 (2020);
          URL http://www.quantum-espresso.org", 
     in publications or presentations arising from this work. More details at
     http://www.quantum-espresso.org/quote

     Parallel version (MPI), running on    24 processors

     MPI processes distributed on     1 nodes
     93694 MiB available memory on the printing compute node when the environment starts

     Waiting for input...
     Reading input from standard input

     Current dimensions of program PWSCF are:
     Max number of different atomic species (ntypx) = 10
     Max number of k-points (npk) =  40000
     Max angular momentum in pseudopotentials (lmaxx) =  4

     R & G space division:  proc/nbgrp/npool/nimage =      24
     Subspace diagonalization in iterative solution of the eigenvalue problem:
     a serial algorithm will be used


     Parallelization info
     --------------------
     sticks:   dense  smooth     PW     G-vecs:    dense   smooth      PW
     Min         490     245     66                25554     9038    1267
     Max         491     247     68                25557     9040    1269
     Sum       11779    5897   1593               613353   216939   30429

     Using Slab Decomposition


     Title: 
     pre-ph                                                                     


     bravais-lattice index     =            8
     lattice parameter (alat)  =      13.6741  a.u.
     unit-cell volume          =    1605.3416 (a.u.)^3
     number of atoms/cell      =           22
     number of atomic types    =            3
     number of electrons       =        48.00
     number of Kohn-Sham states=           24
     kinetic-energy cutoff     =     100.0000  Ry
     charge density cutoff     =     800.0000  Ry
     scf convergence threshold =      1.0E-10
     mixing beta               =       0.7000
     number of iterations used =            8  plain     mixing
     Exchange-correlation= PBESOL
                           (   1   4  10   8   0   0   0)

     celldm(1)=  13.674099  celldm(2)=   0.989582  celldm(3)=   0.634482
     celldm(4)=   0.000000  celldm(5)=   0.000000  celldm(6)=   0.000000

     crystal axes: (cart. coord. in units of alat)
               a(1) = (   1.000000   0.000000   0.000000 )  
               a(2) = (   0.000000   0.989582   0.000000 )  
               a(3) = (   0.000000   0.000000   0.634482 )  

     reciprocal axes: (cart. coord. in units 2 pi/alat)
               b(1) = (  1.000000  0.000000  0.000000 )  
               b(2) = (  0.000000  1.010527  0.000000 )  
               b(3) = (  0.000000  0.000000  1.576089 )  


     PseudoPot. # 1 for B  read from file:
     /home/mehlhorn/pseudos/b_pbesol_v1.4.uspp.F.UPF
     MD5 check sum: 369b69bef2c3aeed4453bd8b804fd6a8
     Pseudo is Ultrasoft + core correction, Zval =  3.0
     Generated by new atomic code, or converted to UPF format
     Using radial grid of  781 points,  4 beta functions with: 
                l(1) =   0
                l(2) =   0
                l(3) =   1
                l(4) =   1
     Q(r) pseudized with  8 coefficients,  rinner =    1.100   1.100   1.100


     PseudoPot. # 2 for Ba read from file:
     /home/mehlhorn/pseudos/Ba.nc.z_10.oncvpsp4.dojo.v4-sp.upf
     MD5 check sum: c10ed334bb677c0554edec7181ce9143
     Pseudo is Norm-conserving + core correction, Zval = 10.0
     Generated using ONCVPSP code by D. R. Hamann
     Using radial grid of 1938 points,  8 beta functions with: 
                l(1) =   0
                l(2) =   0
                l(3) =   1
                l(4) =   1
                l(5) =   2
                l(6) =   2
                l(7) =   3
                l(8) =   3

     PseudoPot. # 3 for H  read from file:
     /home/mehlhorn/pseudos/H_ONCV_PBEsol-1.0.upf
     MD5 check sum: 398ef8f67c0a7342c05c87c5e19ea467
     Pseudo is Norm-conserving, Zval =  1.0
     Generated using ONCVPSP code by D. R. Hamann
     Using radial grid of 1180 points,  2 beta functions with: 
                l(1) =   0
                l(2) =   0

     atomic species   valence    mass     pseudopotential
     B                 3.00    10.81100     B ( 1.00)
     Ba               10.00   137.32700     Ba( 1.00)
     H                 1.00     1.00794     H ( 1.00)

      4 Sym. Ops. (no inversion) found ( 2 have fractional translation)



   Cartesian axes

     site n.     atom                  positions (alat units)
         1        Ba     tau(   1) = (   0.5000000   0.4947912   0.3172522  )
         2        Ba     tau(   2) = (   0.0000000   0.0000000   0.6344709  )
         3        B      tau(   3) = (   0.6413579   0.2648610   0.0000111  )
         4        B      tau(   4) = (   0.3586421   0.7247215   0.0000111  )
         5        B      tau(   5) = (   0.1413579   0.2299303   0.3172299  )
         6        B      tau(   6) = (   0.8586421   0.7596522   0.3172299  )
         7        H      tau(   7) = (   0.4714554   0.2791357   0.0000081  )
         8        H      tau(   8) = (   0.5285446   0.7104468   0.0000081  )
         9        H      tau(   9) = (   0.9714554   0.2156555   0.3172329  )
        10        H      tau(  10) = (   0.0285446   0.7739269   0.3172329  )
        11        H      tau(  11) = (   0.7128420   0.4201314   0.0000064  )
        12        H      tau(  12) = (   0.2871580   0.5694510   0.0000064  )
        13        H      tau(  13) = (   0.2128420   0.0746598   0.3172346  )
        14        H      tau(  14) = (   0.7871580   0.9149226   0.3172346  )
        15        H      tau(  15) = (   0.6872173   0.1818371   0.4934203  )
        16        H      tau(  16) = (   0.3127827   0.8077454   0.4934203  )
        17        H      tau(  17) = (   0.1872173   0.3129541   0.4583027  )
        18        H      tau(  18) = (   0.8127827   0.6766283   0.4583027  )
        19        H      tau(  19) = (   0.3127767   0.8077467   0.1410819  )
        20        H      tau(  20) = (   0.6872233   0.1818357   0.1410819  )
        21        H      tau(  21) = (   0.8127767   0.6766270   0.1761591  )
        22        H      tau(  22) = (   0.1872233   0.3129555   0.1761591  )

     number of k points=    27
                       cart. coord. in units 2pi/alat
        k(    1) = (   0.0000000   0.0000000   0.0000000), wk =   0.0160000
        k(    2) = (   0.0000000   0.0000000   0.3152178), wk =   0.0320000
        k(    3) = (   0.0000000   0.0000000   0.6304355), wk =   0.0320000
        k(    4) = (   0.0000000   0.2021054   0.0000000), wk =   0.0320000
        k(    5) = (   0.0000000   0.2021054   0.3152178), wk =   0.0640000
        k(    6) = (   0.0000000   0.2021054   0.6304355), wk =   0.0640000
        k(    7) = (   0.0000000   0.4042109   0.0000000), wk =   0.0320000
        k(    8) = (   0.0000000   0.4042109   0.3152178), wk =   0.0640000
        k(    9) = (   0.0000000   0.4042109   0.6304355), wk =   0.0640000
        k(   10) = (   0.2000000   0.0000000   0.0000000), wk =   0.0320000
        k(   11) = (   0.2000000   0.0000000   0.3152178), wk =   0.0640000
        k(   12) = (   0.2000000   0.0000000   0.6304355), wk =   0.0640000
        k(   13) = (   0.2000000   0.2021054   0.0000000), wk =   0.0640000
        k(   14) = (   0.2000000   0.2021054   0.3152178), wk =   0.1280000
        k(   15) = (   0.2000000   0.2021054   0.6304355), wk =   0.1280000
        k(   16) = (   0.2000000   0.4042109   0.0000000), wk =   0.0640000
        k(   17) = (   0.2000000   0.4042109   0.3152178), wk =   0.1280000
        k(   18) = (   0.2000000   0.4042109   0.6304355), wk =   0.1280000
        k(   19) = (   0.4000000   0.0000000   0.0000000), wk =   0.0320000
        k(   20) = (   0.4000000   0.0000000   0.3152178), wk =   0.0640000
        k(   21) = (   0.4000000   0.0000000   0.6304355), wk =   0.0640000
        k(   22) = (   0.4000000   0.2021054   0.0000000), wk =   0.0640000
        k(   23) = (   0.4000000   0.2021054   0.3152178), wk =   0.1280000
        k(   24) = (   0.4000000   0.2021054   0.6304355), wk =   0.1280000
        k(   25) = (   0.4000000   0.4042109   0.0000000), wk =   0.0640000
        k(   26) = (   0.4000000   0.4042109   0.3152178), wk =   0.1280000
        k(   27) = (   0.4000000   0.4042109   0.6304355), wk =   0.1280000

     Dense  grid:   613353 G-vectors     FFT dimensions: ( 128, 128,  80)

     Smooth grid:   216939 G-vectors     FFT dimensions: (  90,  90,  60)

     Estimated max dynamical RAM per process >      72.80 MB

     Estimated total dynamical RAM >       1.71 GB

     Initial potential from superposition of free atoms

     starting charge      47.9682, renormalised to      48.0000
     Starting wfcs are   42 randomized atomic wfcs

     total cpu time spent up to now is       12.9 secs

     Self-consistent Calculation

     iteration #  1     ecut=   100.00 Ry     beta= 0.70
     Davidson diagonalization with overlap
     ethr =  1.00E-02,  avg # of iterations =  2.0

     total cpu time spent up to now is       32.0 secs

     total energy              =    -155.90962648 Ry
     estimated scf accuracy    <       2.16784219 Ry

     iteration #  2     ecut=   100.00 Ry     beta= 0.70
     Davidson diagonalization with overlap
     ethr =  4.52E-03,  avg # of iterations =  2.0

     total cpu time spent up to now is       50.3 secs

     total energy              =    -156.40099262 Ry
     estimated scf accuracy    <       0.37558485 Ry

     iteration #  3     ecut=   100.00 Ry     beta= 0.70
     Davidson diagonalization with overlap
     ethr =  7.82E-04,  avg # of iterations =  2.0

     total cpu time spent up to now is       68.6 secs

     total energy              =    -156.46456744 Ry
     estimated scf accuracy    <       0.00489894 Ry

     iteration #  4     ecut=   100.00 Ry     beta= 0.70
     Davidson diagonalization with overlap
     ethr =  1.02E-05,  avg # of iterations =  5.1

     total cpu time spent up to now is       95.2 secs

     total energy              =    -156.46762937 Ry
     estimated scf accuracy    <       0.00181513 Ry

     iteration #  5     ecut=   100.00 Ry     beta= 0.70
     Davidson diagonalization with overlap
     ethr =  3.78E-06,  avg # of iterations =  3.4

     total cpu time spent up to now is      114.2 secs

     total energy              =    -156.46825684 Ry
     estimated scf accuracy    <       0.00020400 Ry

     iteration #  6     ecut=   100.00 Ry     beta= 0.70
     Davidson diagonalization with overlap
     ethr =  4.25E-07,  avg # of iterations =  4.0

     total cpu time spent up to now is      135.1 secs

     total energy              =    -156.46833305 Ry
     estimated scf accuracy    <       0.00000163 Ry

     iteration #  7     ecut=   100.00 Ry     beta= 0.70
     Davidson diagonalization with overlap
     ethr =  3.40E-09,  avg # of iterations = 10.0

     total cpu time spent up to now is      181.3 secs

     total energy              =    -156.46834556 Ry
     estimated scf accuracy    <       0.00000094 Ry

     iteration #  8     ecut=   100.00 Ry     beta= 0.70
     Davidson diagonalization with overlap
     ethr =  1.95E-09,  avg # of iterations =  2.5

     total cpu time spent up to now is      198.0 secs

     total energy              =    -156.46834560 Ry
     estimated scf accuracy    <       0.00000013 Ry

     iteration #  9     ecut=   100.00 Ry     beta= 0.70
     Davidson diagonalization with overlap
     ethr =  2.78E-10,  avg # of iterations =  4.9

     total cpu time spent up to now is      220.5 secs

     total energy              =    -156.46834565 Ry
     estimated scf accuracy    <       0.00000003 Ry

     iteration # 10     ecut=   100.00 Ry     beta= 0.70
     Davidson diagonalization with overlap
     ethr =  6.65E-11,  avg # of iterations =  3.1

     total cpu time spent up to now is      239.6 secs

     total energy              =    -156.46834566 Ry
     estimated scf accuracy    <          3.5E-10 Ry

     iteration # 11     ecut=   100.00 Ry     beta= 0.70
     Davidson diagonalization with overlap
     ethr =  7.27E-13,  avg # of iterations =  7.9

     total cpu time spent up to now is      279.3 secs

     total energy              =    -156.46834566 Ry
     estimated scf accuracy    <          1.7E-10 Ry

     iteration # 12     ecut=   100.00 Ry     beta= 0.70
     Davidson diagonalization with overlap
     ethr =  3.58E-13,  avg # of iterations =  3.4

     total cpu time spent up to now is      299.7 secs

     End of self-consistent calculation

          k = 0.0000 0.0000 0.0000 ( 27159 PWs)   bands (ev):

   -24.7583 -24.7534 -10.2441 -10.2125 -10.0149  -9.9894  -9.9206  -9.8767
    -6.6140  -5.8097  -5.2881  -5.2445  -2.3768  -1.3886  -1.2989  -1.1000
    -1.0597  -0.8583  -0.8225  -0.5873  -0.3461  -0.1589  -0.0673  -0.0550

          k = 0.0000 0.0000 0.3152 ( 27148 PWs)   bands (ev):

   -24.7528 -24.7488 -10.1842 -10.1587 -10.1106 -10.0879 -10.0009  -9.9812
    -6.2693  -5.5902  -5.4122  -5.3778  -2.0783  -1.7565  -1.5673  -1.1740
    -0.9579  -0.9061  -0.6645  -0.5250  -0.3907  -0.2294  -0.2130  -0.1384

          k = 0.0000 0.0000 0.6304 ( 27112 PWs)   bands (ev):

   -24.7435 -24.7419 -10.3799 -10.3759 -10.0634 -10.0507  -9.9951  -9.9851
    -5.6407  -5.6190  -5.6068  -5.3517  -1.9841  -1.9026  -1.7723  -1.5056
    -0.9505  -0.8406  -0.6104  -0.4692  -0.3869  -0.3426  -0.2723  -0.2233

          k = 0.0000 0.2021 0.0000 ( 27127 PWs)   bands (ev):

   -24.7578 -24.7538 -10.2297 -10.1979 -10.0353 -10.0078  -9.9164  -9.8809
    -6.5206  -5.8192  -5.3815  -5.2828  -2.2251  -1.5372  -1.3615  -0.9013
    -0.8903  -0.8550  -0.8226  -0.5724  -0.3740  -0.3131  -0.1362  -0.1171

          k = 0.0000 0.2021 0.3152 ( 27117 PWs)   bands (ev):

   -24.7525 -24.7492 -10.1818 -10.1458 -10.1043 -10.1007 -10.0023  -9.9927
    -6.1977  -5.5812  -5.4998  -5.4003  -1.9795  -1.7780  -1.5991  -1.0422
    -0.9296  -0.8769  -0.7992  -0.4852  -0.3825  -0.2528  -0.2349  -0.2116

          k = 0.0000 0.2021 0.6304 ( 27128 PWs)   bands (ev):

   -24.7433 -24.7421 -10.3850 -10.3814 -10.0522 -10.0440  -9.9953  -9.9890
    -5.7722  -5.7080  -5.4476  -5.2851  -2.0385  -2.0190  -1.6532  -1.4441
    -0.8876  -0.7354  -0.6229  -0.4670  -0.4162  -0.4024  -0.2857  -0.2741

          k = 0.0000 0.4042 0.0000 ( 27065 PWs)   bands (ev):

   -24.7566 -24.7551 -10.1931 -10.1722 -10.0702 -10.0507  -9.9054  -9.8918
    -6.2726  -5.9719  -5.4532  -5.3758  -1.9439  -1.7382  -1.2196  -0.8444
    -0.8301  -0.8041  -0.6196  -0.5984  -0.5215  -0.4438  -0.2662  -0.2572

          k = 0.0000 0.4042 0.3152 ( 27067 PWs)   bands (ev):

   -24.7514 -24.7502 -10.1678 -10.1390 -10.1133 -10.0909 -10.0126 -10.0103
    -6.0038  -5.7478  -5.5170  -5.4558  -1.8537  -1.8170  -1.4672  -1.1371
    -0.8611  -0.8191  -0.7377  -0.5349  -0.4150  -0.4078  -0.2429  -0.2315

          k = 0.0000 0.4042 0.6304 ( 27114 PWs)   bands (ev):

   -24.7429 -24.7425 -10.3923 -10.3907 -10.0320 -10.0308  -9.9984  -9.9978
    -5.8442  -5.8174  -5.3022  -5.2409  -2.1224  -2.1184  -1.4740  -1.3773
    -0.7653  -0.6406  -0.5889  -0.5846  -0.4478  -0.4367  -0.3551  -0.3082

          k = 0.2000 0.0000 0.0000 ( 27113 PWs)   bands (ev):

   -24.7578 -24.7538 -10.2270 -10.1996 -10.0331 -10.0113  -9.9164  -9.8809
    -6.5246  -5.8444  -5.3138  -5.3096  -2.2440  -1.3579  -1.3229  -1.1889
    -0.8323  -0.8286  -0.8124  -0.5938  -0.3903  -0.2982  -0.1733  -0.1175

          k = 0.2000 0.0000 0.3152 ( 27107 PWs)   bands (ev):

   -24.7525 -24.7492 -10.1700 -10.1617 -10.1020 -10.0988 -10.0105  -9.9854
    -6.1960  -5.6066  -5.4423  -5.4269  -1.9914  -1.7228  -1.6175  -1.0713
    -0.9434  -0.8789  -0.7626  -0.4865  -0.4804  -0.2415  -0.2204  -0.1816

          k = 0.2000 0.0000 0.6304 ( 27117 PWs)   bands (ev):

   -24.7433 -24.7421 -10.3858 -10.3822 -10.0558 -10.0403  -9.9987  -9.9857
    -5.7335  -5.6678  -5.4938  -5.3126  -2.1338  -2.0337  -1.6146  -1.3863
    -0.8459  -0.7733  -0.6357  -0.5044  -0.3752  -0.3691  -0.3140  -0.2469

          k = 0.2000 0.2021 0.0000 ( 27108 PWs)   bands (ev):

   -24.7575 -24.7542 -10.2372 -10.1746 -10.0669  -9.9971  -9.9130  -9.8842
    -6.4538  -5.8713  -5.4082  -5.2909  -2.1236  -1.5314  -1.3329  -1.0093
    -0.8645  -0.8042  -0.6777  -0.5693  -0.4753  -0.3935  -0.2508  -0.1023

          k = 0.2000 0.2021 0.3152 ( 27101 PWs)   bands (ev):

   -24.7521 -24.7495 -10.1794 -10.1430 -10.1218 -10.0871 -10.0132  -9.9862
    -6.1381  -5.6226  -5.5154  -5.4152  -1.9201  -1.7506  -1.6277  -1.0029
    -0.9724  -0.8726  -0.7406  -0.5051  -0.4576  -0.2734  -0.2560  -0.1839

          k = 0.2000 0.2021 0.6304 ( 27101 PWs)   bands (ev):

   -24.7432 -24.7422 -10.3905 -10.3793 -10.0606 -10.0294 -10.0002  -9.9879
    -5.8051  -5.6423  -5.4868  -5.2703  -2.1629  -2.0177  -1.6157  -1.4267
    -0.7657  -0.7153  -0.6234  -0.4821  -0.4599  -0.3728  -0.3419  -0.2161

          k = 0.2000 0.4042 0.0000 ( 27078 PWs)   bands (ev):

   -24.7564 -24.7552 -10.2245 -10.1869 -10.0574 -10.0145  -9.9040  -9.8930
    -6.2630  -6.0239  -5.4306  -5.3553  -1.8910  -1.7098  -1.2372  -0.8875
    -0.8731  -0.8416  -0.6999  -0.4959  -0.4906  -0.4253  -0.3461  -0.1975

          k = 0.2000 0.4042 0.3152 ( 27081 PWs)   bands (ev):

   -24.7513 -24.7503 -10.1761 -10.1537 -10.1133 -10.0873 -10.0097  -9.9944
    -5.9818  -5.7772  -5.5084  -5.4546  -1.8323  -1.7986  -1.5061  -1.2312
    -0.8462  -0.7665  -0.7182  -0.5411  -0.4116  -0.3335  -0.2789  -0.2417

          k = 0.2000 0.4042 0.6304 ( 27128 PWs)   bands (ev):

   -24.7429 -24.7425 -10.3901 -10.3834 -10.0519 -10.0334  -9.9971  -9.9912
    -5.8232  -5.7537  -5.3550  -5.2672  -2.1586  -2.0806  -1.5541  -1.4677
    -0.7515  -0.6705  -0.5512  -0.4688  -0.4524  -0.3846  -0.3483  -0.2580

          k = 0.4000 0.0000 0.0000 ( 27104 PWs)   bands (ev):

   -24.7566 -24.7551 -10.1866 -10.1726 -10.0698 -10.0583  -9.9054  -9.8918
    -6.2906  -6.0128  -5.3836  -5.3585  -1.9513  -1.6457  -1.0926  -0.9135
    -0.7897  -0.7879  -0.7693  -0.5972  -0.5805  -0.4937  -0.3575  -0.2494

          k = 0.4000 0.0000 0.3152 ( 27111 PWs)   bands (ev):

   -24.7514 -24.7502 -10.1551 -10.1342 -10.1314 -10.0986 -10.0170 -10.0000
    -6.0009  -5.7564  -5.4883  -5.4611  -1.8485  -1.7291  -1.5181  -1.1628
    -0.8682  -0.7896  -0.7878  -0.6460  -0.4204  -0.3354  -0.2492  -0.2403

          k = 0.4000 0.0000 0.6304 ( 27117 PWs)   bands (ev):

   -24.7429 -24.7425 -10.3941 -10.3926 -10.0390 -10.0273 -10.0018  -9.9912
    -5.7774  -5.7505  -5.3661  -5.2968  -2.2469  -2.2013  -1.4052  -1.2857
    -0.7327  -0.6826  -0.5857  -0.5398  -0.5190  -0.3352  -0.3333  -0.3169

          k = 0.4000 0.2021 0.0000 ( 27115 PWs)   bands (ev):

   -24.7564 -24.7552 -10.2231 -10.1853 -10.0593 -10.0163  -9.9040  -9.8931
    -6.2745  -6.0458  -5.3973  -5.3379  -1.8929  -1.6578  -1.1702  -0.8994
    -0.8506  -0.8157  -0.7826  -0.5859  -0.5260  -0.4512  -0.3523  -0.1978

          k = 0.4000 0.2021 0.3152 ( 27098 PWs)   bands (ev):

   -24.7513 -24.7503 -10.1722 -10.1511 -10.1204 -10.0915 -10.0089  -9.9917
    -5.9803  -5.7809  -5.4959  -5.4540  -1.8258  -1.7326  -1.5570  -1.2575
    -0.8118  -0.7884  -0.7231  -0.5792  -0.4265  -0.3418  -0.2727  -0.2342

          k = 0.4000 0.2021 0.6304 ( 27104 PWs)   bands (ev):

   -24.7429 -24.7425 -10.3913 -10.3846 -10.0531 -10.0342  -9.9968  -9.9896
    -5.7825  -5.6968  -5.4080  -5.3030  -2.2262  -2.1609  -1.4793  -1.4161
    -0.7220  -0.6735  -0.5718  -0.5435  -0.4396  -0.3634  -0.3050  -0.2223

          k = 0.4000 0.4042 0.0000 ( 27109 PWs)   bands (ev):

   -24.7561 -24.7556 -10.2444 -10.2284 -10.0125  -9.9931  -9.9005  -9.8963
    -6.2200  -6.1308  -5.3775  -5.3433  -1.7713  -1.6861  -1.2329  -1.0786
    -0.8950  -0.8790  -0.6754  -0.5324  -0.4427  -0.4131  -0.2988  -0.2049

          k = 0.4000 0.4042 0.3152 ( 27096 PWs)   bands (ev):

   -24.7510 -24.7506 -10.1852 -10.1768 -10.1045 -10.0929  -9.9917  -9.9838
    -5.9234  -5.8468  -5.4854  -5.4625  -1.7854  -1.7471  -1.5609  -1.4314
    -0.7538  -0.7264  -0.6238  -0.5300  -0.4075  -0.3749  -0.2994  -0.2367

          k = 0.4000 0.4042 0.6304 ( 27118 PWs)   bands (ev):

   -24.7428 -24.7426 -10.3810 -10.3766 -10.0642 -10.0543  -9.9905  -9.9886
    -5.7364  -5.6733  -5.4248  -5.3552  -2.1511  -2.0992  -1.6411  -1.5930
    -0.7202  -0.6825  -0.4974  -0.4753  -0.3790  -0.3685  -0.2335  -0.1868

     highest occupied level (ev):    -0.0550

!    total energy              =    -156.46834566 Ry
     estimated scf accuracy    <          9.2E-12 Ry

     The total energy is the sum of the following terms:
     one-electron contribution =     -37.52775634 Ry
     hartree contribution      =      31.67533438 Ry
     xc contribution           =     -49.06374037 Ry
     ewald contribution        =    -101.55218333 Ry

     convergence has been achieved in  12 iterations

     Writing all to output data dir ./pwscf.save/ :
     XML data file, charge density, pseudopotentials, collected wavefunctions

     init_run     :     11.39s CPU     12.57s WALL (       1 calls)
     electrons    :    284.79s CPU    286.84s WALL (       1 calls)

     Called by init_run:
     wfcinit      :      9.04s CPU      9.09s WALL (       1 calls)
     potinit      :      0.59s CPU      1.09s WALL (       1 calls)
     hinit0       :      0.80s CPU      1.37s WALL (       1 calls)

     Called by electrons:
     c_bands      :    254.63s CPU    256.20s WALL (      12 calls)
     sum_band     :     25.60s CPU     25.94s WALL (      12 calls)
     v_of_rho     :      1.90s CPU      1.96s WALL (      13 calls)
     newd         :      2.50s CPU      2.54s WALL (      13 calls)
     mix_rho      :      0.27s CPU      0.28s WALL (      12 calls)

     Called by c_bands:
     init_us_2    :      4.80s CPU      4.86s WALL (     675 calls)
     cegterg      :    231.86s CPU    233.33s WALL (     324 calls)

     Called by *egterg:
     cdiaghg      :      3.29s CPU      3.31s WALL (    1686 calls)
     h_psi        :    170.23s CPU    171.49s WALL (    1713 calls)
     s_psi        :     29.65s CPU     29.76s WALL (    1713 calls)
     g_psi        :      0.60s CPU      0.61s WALL (    1362 calls)

     Called by h_psi:
     h_psi:calbec :     27.04s CPU     27.14s WALL (    1713 calls)
     vloc_psi     :    113.06s CPU    114.11s WALL (    1713 calls)
     add_vuspsi   :     29.67s CPU     29.78s WALL (    1713 calls)

     General routines
     calbec       :     34.02s CPU     34.16s WALL (    2037 calls)
     fft          :      1.71s CPU      2.31s WALL (     167 calls)
     ffts         :      0.48s CPU      0.97s WALL (      25 calls)
     fftw         :    113.34s CPU    114.35s WALL (   66388 calls)
     interpolate  :      0.53s CPU      1.03s WALL (      13 calls)

     Parallel routines

     PWSCF        :   4m57.03s CPU   5m 1.10s WALL


   This run was terminated on:  11:17:55  12Aug2024            

=------------------------------------------------------------------------------=
   JOB DONE.
=------------------------------------------------------------------------------=
