
     Program PWSCF v.7.3.1 starts on 12Jul2024 at 14:14: 7 

     This program is part of the open-source Quantum ESPRESSO suite
     for quantum simulation of materials; please cite
         "P. Giannozzi et al., J. Phys.:Condens. Matter 21 395502 (2009);
         "P. Giannozzi et al., J. Phys.:Condens. Matter 29 465901 (2017);
         "P. Giannozzi et al., J. Chem. Phys. 152 154105 (2020);
          URL http://www.quantum-espresso.org", 
     in publications or presentations arising from this work. More details at
     http://www.quantum-espresso.org/quote

     Parallel version (MPI), running on    24 processors

     MPI processes distributed on     1 nodes
     126759 MiB available memory on the printing compute node when the environment starts

     Waiting for input...
     Reading input from standard input

     Current dimensions of program PWSCF are:
     Max number of different atomic species (ntypx) = 10
     Max number of k-points (npk) =  40000
     Max angular momentum in pseudopotentials (lmaxx) =  4

     R & G space division:  proc/nbgrp/npool/nimage =      24
     Subspace diagonalization in iterative solution of the eigenvalue problem:
     a serial algorithm will be used


     Parallelization info
     --------------------
     sticks:   dense  smooth     PW     G-vecs:    dense   smooth      PW
     Min         425     211     58                22036     7793    1127
     Max         426     212     60                22039     7796    1128
     Sum       10203    5079   1399               528891   187065   27071

     Using Slab Decomposition


     Title: 
     volume variation                                                           


     bravais-lattice index     =            8
     lattice parameter (alat)  =      12.4917  a.u.
     unit-cell volume          =    1384.1612 (a.u.)^3
     number of atoms/cell      =           22
     number of atomic types    =            3
     number of electrons       =        48.00
     number of Kohn-Sham states=           24
     kinetic-energy cutoff     =     100.0000  Ry
     charge density cutoff     =     800.0000  Ry
     scf convergence threshold =      1.0E-10
     mixing beta               =       0.7000
     number of iterations used =            8  plain     mixing
     energy convergence thresh.=      1.0E-05
     force convergence thresh. =      1.0E-05
     press convergence thresh. =      5.0E-01
     Exchange-correlation= PBESOL
                           (   1   4  10   8   0   0   0)
     nstep                     =          300


     celldm(1)=  12.491728  celldm(2)=   1.025571  celldm(3)=   0.692394
     celldm(4)=   0.000000  celldm(5)=   0.000000  celldm(6)=   0.000000

     crystal axes: (cart. coord. in units of alat)
               a(1) = (   1.000000   0.000000   0.000000 )  
               a(2) = (   0.000000   1.025571   0.000000 )  
               a(3) = (   0.000000   0.000000   0.692394 )  

     reciprocal axes: (cart. coord. in units 2 pi/alat)
               b(1) = (  1.000000  0.000000  0.000000 )  
               b(2) = (  0.000000  0.975067  0.000000 )  
               b(3) = (  0.000000  0.000000  1.444264 )  


     PseudoPot. # 1 for B  read from file:
     /home/mehlhorn/pseudos/b_pbesol_v1.4.uspp.F.UPF
     MD5 check sum: 369b69bef2c3aeed4453bd8b804fd6a8
     Pseudo is Ultrasoft + core correction, Zval =  3.0
     Generated by new atomic code, or converted to UPF format
     Using radial grid of  781 points,  4 beta functions with: 
                l(1) =   0
                l(2) =   0
                l(3) =   1
                l(4) =   1
     Q(r) pseudized with  8 coefficients,  rinner =    1.100   1.100   1.100


     PseudoPot. # 2 for Ba read from file:
     /home/mehlhorn/pseudos/Ba.nc.z_10.oncvpsp4.dojo.v4-sp.upf
     MD5 check sum: c10ed334bb677c0554edec7181ce9143
     Pseudo is Norm-conserving + core correction, Zval = 10.0
     Generated using ONCVPSP code by D. R. Hamann
     Using radial grid of 1938 points,  8 beta functions with: 
                l(1) =   0
                l(2) =   0
                l(3) =   1
                l(4) =   1
                l(5) =   2
                l(6) =   2
                l(7) =   3
                l(8) =   3

     PseudoPot. # 3 for H  read from file:
     /home/mehlhorn/pseudos/H_ONCV_PBEsol-1.0.upf
     MD5 check sum: 398ef8f67c0a7342c05c87c5e19ea467
     Pseudo is Norm-conserving, Zval =  1.0
     Generated using ONCVPSP code by D. R. Hamann
     Using radial grid of 1180 points,  2 beta functions with: 
                l(1) =   0
                l(2) =   0

     atomic species   valence    mass     pseudopotential
     B                 3.00    10.81100     B ( 1.00)
     Ba               10.00   137.32700     Ba( 1.00)
     H                 1.00     1.00794     H ( 1.00)

      4 Sym. Ops. (no inversion) found ( 2 have fractional translation)



   Cartesian axes

     site n.     atom                  positions (alat units)
         1        Ba     tau(   1) = (   0.5000000   0.5127855   0.3462657  )
         2        Ba     tau(   2) = (   0.0000000   0.0000000   0.6923255  )
         3        B      tau(   3) = (   0.6102570   0.2453190   0.0000455  )
         4        B      tau(   4) = (   0.3897430   0.7802519   0.0000455  )
         5        B      tau(   5) = (   0.1102570   0.2674665   0.3461516  )
         6        B      tau(   6) = (   0.8897430   0.7581045   0.3461516  )
         7        H      tau(   7) = (   0.4340973   0.2996264   0.0001599  )
         8        H      tau(   8) = (   0.5659027   0.7259445   0.0001599  )
         9        H      tau(   9) = (   0.9340973   0.2131590   0.3460372  )
        10        H      tau(  10) = (   0.0659027   0.8124119   0.3460372  )
        11        H      tau(  11) = (   0.7220603   0.3933629  -0.0000058  )
        12        H      tau(  12) = (   0.2779397   0.6322081  -0.0000058  )
        13        H      tau(  13) = (   0.2220603   0.1194226   0.3462029  )
        14        H      tau(  14) = (   0.7779397   0.9061483   0.3462029  )
        15        H      tau(  15) = (   0.6392499   0.1457279   0.5404125  )
        16        H      tau(  16) = (   0.3607501   0.8798430   0.5404125  )
        17        H      tau(  17) = (   0.1392499   0.3670576   0.4981787  )
        18        H      tau(  18) = (   0.8607501   0.6585133   0.4981787  )
        19        H      tau(  19) = (   0.3605328   0.8798946   0.1519977  )
        20        H      tau(  20) = (   0.6394672   0.1456763   0.1519977  )
        21        H      tau(  21) = (   0.8605328   0.6584617   0.1941994  )
        22        H      tau(  22) = (   0.1394672   0.3671092   0.1941994  )

     number of k points=    27
                       cart. coord. in units 2pi/alat
        k(    1) = (   0.0000000   0.0000000   0.0000000), wk =   0.0312500
        k(    2) = (   0.0000000   0.0000000   0.3610660), wk =   0.0625000
        k(    3) = (   0.0000000   0.0000000  -0.7221320), wk =   0.0312500
        k(    4) = (   0.0000000   0.2437667   0.0000000), wk =   0.0625000
        k(    5) = (   0.0000000   0.2437667   0.3610660), wk =   0.1250000
        k(    6) = (   0.0000000   0.2437667  -0.7221320), wk =   0.0625000
        k(    7) = (   0.0000000  -0.4875333   0.0000000), wk =   0.0312500
        k(    8) = (   0.0000000  -0.4875333   0.3610660), wk =   0.0625000
        k(    9) = (   0.0000000  -0.4875333  -0.7221320), wk =   0.0312500
        k(   10) = (   0.2500000   0.0000000   0.0000000), wk =   0.0625000
        k(   11) = (   0.2500000   0.0000000   0.3610660), wk =   0.1250000
        k(   12) = (   0.2500000   0.0000000  -0.7221320), wk =   0.0625000
        k(   13) = (   0.2500000   0.2437667   0.0000000), wk =   0.1250000
        k(   14) = (   0.2500000   0.2437667   0.3610660), wk =   0.2500000
        k(   15) = (   0.2500000   0.2437667  -0.7221320), wk =   0.1250000
        k(   16) = (   0.2500000  -0.4875333   0.0000000), wk =   0.0625000
        k(   17) = (   0.2500000  -0.4875333   0.3610660), wk =   0.1250000
        k(   18) = (   0.2500000  -0.4875333  -0.7221320), wk =   0.0625000
        k(   19) = (  -0.5000000   0.0000000   0.0000000), wk =   0.0312500
        k(   20) = (  -0.5000000   0.0000000   0.3610660), wk =   0.0625000
        k(   21) = (  -0.5000000   0.0000000  -0.7221320), wk =   0.0312500
        k(   22) = (  -0.5000000   0.2437667   0.0000000), wk =   0.0625000
        k(   23) = (  -0.5000000   0.2437667   0.3610660), wk =   0.1250000
        k(   24) = (  -0.5000000   0.2437667  -0.7221320), wk =   0.0625000
        k(   25) = (  -0.5000000  -0.4875333   0.0000000), wk =   0.0312500
        k(   26) = (  -0.5000000  -0.4875333   0.3610660), wk =   0.0625000
        k(   27) = (  -0.5000000  -0.4875333  -0.7221320), wk =   0.0312500

     Dense  grid:   528891 G-vectors     FFT dimensions: ( 120, 120,  80)

     Smooth grid:   187065 G-vectors     FFT dimensions: (  80,  90,  60)

     Estimated max dynamical RAM per process >      89.16 MB

     Estimated total dynamical RAM >       2.09 GB

     Initial potential from superposition of free atoms

     starting charge      47.9682, renormalised to      48.0000
     Starting wfcs are   42 randomized atomic wfcs

     total cpu time spent up to now is       11.7 secs

     Self-consistent Calculation

     iteration #  1     ecut=   100.00 Ry     beta= 0.70
     Davidson diagonalization with overlap
     ethr =  1.00E-02,  avg # of iterations =  2.0

     total cpu time spent up to now is       24.3 secs

     total energy              =    -155.90592749 Ry
     estimated scf accuracy    <       2.15830742 Ry

     iteration #  2     ecut=   100.00 Ry     beta= 0.70
     Davidson diagonalization with overlap
     ethr =  4.50E-03,  avg # of iterations =  2.0

     total cpu time spent up to now is       36.3 secs

     total energy              =    -156.40595742 Ry
     estimated scf accuracy    <       0.37417952 Ry

     iteration #  3     ecut=   100.00 Ry     beta= 0.70
     Davidson diagonalization with overlap
     ethr =  7.80E-04,  avg # of iterations =  2.0

     total cpu time spent up to now is       48.3 secs

     total energy              =    -156.46818260 Ry
     estimated scf accuracy    <       0.00498685 Ry

     iteration #  4     ecut=   100.00 Ry     beta= 0.70
     Davidson diagonalization with overlap
     ethr =  1.04E-05,  avg # of iterations =  5.1

     total cpu time spent up to now is       66.1 secs

     total energy              =    -156.47141248 Ry
     estimated scf accuracy    <       0.00164726 Ry

     iteration #  5     ecut=   100.00 Ry     beta= 0.70
     Davidson diagonalization with overlap
     ethr =  3.43E-06,  avg # of iterations =  3.1

     total cpu time spent up to now is       78.5 secs

     total energy              =    -156.47198534 Ry
     estimated scf accuracy    <       0.00016136 Ry

     iteration #  6     ecut=   100.00 Ry     beta= 0.70
     Davidson diagonalization with overlap
     ethr =  3.36E-07,  avg # of iterations =  4.0

     total cpu time spent up to now is       92.4 secs

     total energy              =    -156.47204726 Ry
     estimated scf accuracy    <       0.00000107 Ry

     iteration #  7     ecut=   100.00 Ry     beta= 0.70
     Davidson diagonalization with overlap
     ethr =  2.24E-09,  avg # of iterations =  8.9

     total cpu time spent up to now is      121.5 secs

     total energy              =    -156.47205542 Ry
     estimated scf accuracy    <       0.00000098 Ry

     iteration #  8     ecut=   100.00 Ry     beta= 0.70
     Davidson diagonalization with overlap
     ethr =  2.05E-09,  avg # of iterations =  2.0

     total cpu time spent up to now is      133.5 secs

     total energy              =    -156.47205568 Ry
     estimated scf accuracy    <       0.00000006 Ry

     iteration #  9     ecut=   100.00 Ry     beta= 0.70
     Davidson diagonalization with overlap
     ethr =  1.23E-10,  avg # of iterations =  4.6

     total cpu time spent up to now is      147.6 secs

     total energy              =    -156.47205570 Ry
     estimated scf accuracy    <          3.8E-09 Ry

     iteration # 10     ecut=   100.00 Ry     beta= 0.70
     Davidson diagonalization with overlap
     ethr =  7.87E-12,  avg # of iterations =  4.8

     total cpu time spent up to now is      163.2 secs

     total energy              =    -156.47205570 Ry
     estimated scf accuracy    <          1.7E-09 Ry

     iteration # 11     ecut=   100.00 Ry     beta= 0.70
     Davidson diagonalization with overlap
     ethr =  3.48E-12,  avg # of iterations =  2.2

     total cpu time spent up to now is      175.3 secs

     End of self-consistent calculation

          k = 0.0000 0.0000 0.0000 ( 23401 PWs)   bands (ev):

   -23.4689 -23.4574  -9.1138  -9.0058  -8.7670  -8.7187  -8.6923  -8.6146
    -5.8938  -4.8976  -4.0915  -3.9582  -1.5738  -0.6396  -0.5099  -0.1994
     0.2051   0.2409   0.3076   0.4033   0.5834   1.0187   1.0263   1.0704

          k = 0.0000 0.0000 0.3611 ( 23378 PWs)   bands (ev):

   -23.4591 -23.4509  -9.0005  -8.9988  -8.9745  -8.9247  -8.7443  -8.7177
    -5.3222  -4.5866  -4.3045  -4.2259  -1.1509  -0.8863  -0.4333  -0.3871
    -0.2203  -0.0866   0.3006   0.6057   0.7903   0.8484   0.9371   1.0851

          k = 0.0000 0.0000-0.7221 ( 23340 PWs)   bands (ev):

   -23.4469 -23.4469  -9.2607  -9.2604  -8.8230  -8.8230  -8.7535  -8.7535
    -4.5492  -4.5488  -4.5090  -4.5085  -0.9176  -0.9170  -0.9080  -0.9063
     0.1844   0.1853   0.3142   0.3160   0.9012   0.9016   0.9193   0.9195

          k = 0.0000 0.2438 0.0000 ( 23353 PWs)   bands (ev):

   -23.4672 -23.4590  -9.0795  -8.9683  -8.8368  -8.7634  -8.6807  -8.6257
    -5.6677  -4.7921  -4.4142  -4.1081  -1.1772  -0.7117  -0.7103   0.1047
     0.1345   0.1433   0.4578   0.5943   0.6668   0.6827   0.9235   0.9968

          k = 0.0000 0.2438 0.3611 ( 23370 PWs)   bands (ev):

   -23.4579 -23.4521  -9.0566  -9.0118  -8.9084  -8.8897  -8.7571  -8.7455
    -5.2121  -4.6713  -4.3438  -4.2645  -0.9544  -0.9120  -0.7310  -0.1180
    -0.0747   0.1208   0.1410   0.6629   0.7271   0.7908   0.8946   0.9533

          k = 0.0000 0.2438-0.7221 ( 23400 PWs)   bands (ev):

   -23.4469 -23.4469  -9.2767  -9.2766  -8.7993  -8.7993  -8.7524  -8.7524
    -4.9041  -4.9040  -4.1384  -4.1384  -1.0591  -1.0584  -0.7058  -0.7050
     0.2755   0.2757   0.3450   0.3466   0.7129   0.7131   0.9107   0.9110

          k = 0.0000-0.4875 0.0000 ( 23352 PWs)   bands (ev):

   -23.4631 -23.4631  -8.9798  -8.9798  -8.8646  -8.8646  -8.6529  -8.6529
    -5.1133  -5.1133  -4.4354  -4.4354  -0.8436  -0.8436  -0.2132  -0.2132
     0.0409   0.0409   0.5772   0.5772   0.7255   0.7255   0.8434   0.8434

          k = 0.0000-0.4875 0.3611 ( 23358 PWs)   bands (ev):

   -23.4550 -23.4550  -9.0573  -9.0573  -8.8352  -8.8352  -8.7961  -8.7961
    -4.9400  -4.9400  -4.3309  -4.3309  -0.8992  -0.8992  -0.4800  -0.4800
     0.1893   0.1893   0.4849   0.4849   0.6373   0.6373   0.8657   0.8657

          k = 0.0000-0.4875-0.7221 ( 23372 PWs)   bands (ev):

   -23.4469 -23.4469  -9.2914  -9.2914  -8.7788  -8.7788  -8.7493  -8.7493
    -5.0566  -5.0566  -3.9702  -3.9702  -1.1585  -1.1585  -0.4271  -0.4271
     0.1849   0.1849   0.4176   0.4176   0.5044   0.5044   0.9492   0.9492

          k = 0.2500 0.0000 0.0000 ( 23392 PWs)   bands (ev):

   -23.4672 -23.4590  -9.0666  -8.9845  -8.8218  -8.7870  -8.6807  -8.6258
    -5.6773  -4.9117  -4.1457  -4.1360  -1.3694  -0.4697  -0.4294  -0.3276
     0.2572   0.3079   0.3641   0.4309   0.5358   0.5633   0.9767   1.0103

          k = 0.2500 0.0000 0.3611 ( 23387 PWs)   bands (ev):

   -23.4579 -23.4521  -9.0464  -9.0262  -8.9429  -8.8607  -8.7767  -8.7310
    -5.1587  -4.5570  -4.3692  -4.3460  -1.1234  -0.8749  -0.7300  -0.1686
    -0.1663   0.1416   0.3690   0.5103   0.6670   0.7950   0.9994   1.0342

          k = 0.2500 0.0000-0.7221 ( 23396 PWs)   bands (ev):

   -23.4469 -23.4468  -9.2829  -9.2828  -8.8051  -8.8051  -8.7496  -8.7495
    -4.6865  -4.6861  -4.3352  -4.3348  -1.4212  -1.4207  -0.4205  -0.4201
     0.1879   0.1883   0.5629   0.5642   0.6895   0.6895   0.9448   0.9452

          k = 0.2500 0.2438 0.0000 ( 23378 PWs)   bands (ev):

   -23.4660 -23.4602  -9.1017  -8.9559  -8.8884  -8.7271  -8.6722  -8.6334
    -5.5254  -4.8635  -4.4274  -4.1578  -1.0586  -0.6948  -0.4881  -0.0028
     0.0661   0.1232   0.4437   0.6035   0.6112   0.7062   0.7656   0.9258

          k = 0.2500 0.2438 0.3611 ( 23373 PWs)   bands (ev):

   -23.4570 -23.4529  -9.0505  -9.0010  -8.9902  -8.8349  -8.7921  -8.7218
    -5.0669  -4.6115  -4.4393  -4.3449  -1.0889  -0.8457  -0.7341  -0.1521
     0.0038   0.1954   0.2987   0.5358   0.6377   0.7555   0.9184   1.0104

          k = 0.2500 0.2438-0.7221 ( 23364 PWs)   bands (ev):

   -23.4468 -23.4468  -9.2909  -9.2622  -8.8336  -8.7813  -8.7593  -8.7499
    -4.9233  -4.7029  -4.3079  -4.0803  -1.3971  -1.3024  -0.5037  -0.3654
     0.1314   0.1377   0.5290   0.6094   0.6886   0.7487   0.8920   0.9165

          k = 0.2500-0.4875 0.0000 ( 23346 PWs)   bands (ev):

   -23.4631 -23.4631  -9.0722  -9.0722  -8.7710  -8.7710  -8.6524  -8.6524
    -5.1358  -5.1358  -4.3975  -4.3975  -0.7518  -0.7518  -0.2223  -0.2223
    -0.0035  -0.0035   0.5024   0.5024   0.7701   0.7701   0.7775   0.7775

          k = 0.2500-0.4875 0.3611 ( 23352 PWs)   bands (ev):

   -23.4550 -23.4550  -9.0429  -9.0429  -8.9159  -8.9159  -8.7397  -8.7397
    -4.8405  -4.8405  -4.4060  -4.4060  -0.9983  -0.9983  -0.3851  -0.3851
     0.1510   0.1510   0.4967   0.4967   0.6542   0.6542   0.8887   0.8887

          k = 0.2500-0.4875-0.7221 ( 23412 PWs)   bands (ev):

   -23.4468 -23.4468  -9.2716  -9.2716  -8.8107  -8.8107  -8.7576  -8.7576
    -4.9277  -4.9277  -4.0650  -4.0650  -1.2731  -1.2731  -0.4964  -0.4964
     0.2583   0.2583   0.3941   0.3941   0.7517   0.7517   0.9039   0.9039

          k =-0.5000 0.0000 0.0000 ( 23356 PWs)   bands (ev):

   -23.4631 -23.4631  -8.9491  -8.9491  -8.9070  -8.9070  -8.6530  -8.6530
    -5.2039  -5.2039  -4.2416  -4.2416  -0.9192  -0.9192  -0.0819  -0.0819
     0.3081   0.3081   0.3146   0.3146   0.4071   0.4071   0.8515   0.8515

          k =-0.5000 0.0000 0.3611 ( 23338 PWs)   bands (ev):

   -23.4550 -23.4550  -9.0631  -9.0631  -8.8629  -8.8629  -8.7775  -8.7775
    -4.7778  -4.7778  -4.4341  -4.4341  -1.0526  -1.0526  -0.4539  -0.4539
     0.1563   0.1563   0.3594   0.3594   0.7580   0.7580   0.9875   0.9875

          k =-0.5000 0.0000-0.7221 ( 23428 PWs)   bands (ev):

   -23.4468 -23.4468  -9.3035  -9.3035  -8.7902  -8.7902  -8.7443  -8.7443
    -4.7468  -4.7468  -4.2344  -4.2344  -1.6475  -1.6475  -0.0849  -0.0849
     0.1899   0.1899   0.3582   0.3582   0.8905   0.8905   0.8946   0.8946

          k =-0.5000 0.2438 0.0000 ( 23384 PWs)   bands (ev):

   -23.4630 -23.4630  -9.0701  -9.0701  -8.7789  -8.7789  -8.6525  -8.6525
    -5.1824  -5.1824  -4.2992  -4.2992  -0.8062  -0.8062  -0.0890  -0.0890
     0.0678   0.0678   0.2709   0.2709   0.6730   0.6730   0.8327   0.8327

          k =-0.5000 0.2438 0.3611 ( 23378 PWs)   bands (ev):

   -23.4549 -23.4549  -9.0468  -9.0468  -8.9207  -8.9207  -8.7384  -8.7384
    -4.7359  -4.7359  -4.4806  -4.4806  -1.0596  -1.0596  -0.4190  -0.4190
     0.1907   0.1907   0.4060   0.4060   0.7502   0.7502   0.9149   0.9149

          k =-0.5000 0.2438-0.7221 ( 23364 PWs)   bands (ev):

   -23.4468 -23.4468  -9.2782  -9.2782  -8.8139  -8.8139  -8.7568  -8.7568
    -4.7525  -4.7525  -4.2174  -4.2174  -1.5323  -1.5323  -0.3165  -0.3165
     0.2348   0.2348   0.4427   0.4427   0.8132   0.8132   0.9647   0.9647

          k =-0.5000-0.4875 0.0000 ( 23424 PWs)   bands (ev):

   -23.4630 -23.4630  -9.1261  -9.1261  -8.7159  -8.7159  -8.6519  -8.6519
    -5.1586  -5.1586  -4.3577  -4.3577  -0.6476  -0.6476  -0.2442  -0.2442
    -0.0432  -0.0432   0.4612   0.4612   0.6761   0.6761   0.8101   0.8101

          k =-0.5000-0.4875 0.3611 ( 23368 PWs)   bands (ev):

   -23.4549 -23.4549  -9.0138  -9.0138  -8.9786  -8.9786  -8.7159  -8.7159
    -4.6702  -4.6702  -4.5507  -4.5507  -1.0499  -1.0499  -0.4543  -0.4543
     0.3517   0.3517   0.4917   0.4917   0.6438   0.6438   0.8271   0.8271

          k =-0.5000-0.4875-0.7221 ( 23392 PWs)   bands (ev):

   -23.4468 -23.4468  -9.2492  -9.2492  -8.8450  -8.8450  -8.7655  -8.7655
    -4.7587  -4.7587  -4.1993  -4.1993  -1.3580  -1.3580  -0.6347  -0.6347
     0.4772   0.4772   0.5232   0.5232   0.6709   0.6709   0.9271   0.9271

     highest occupied level (ev):     1.0851

!    total energy              =    -156.47205570 Ry
     estimated scf accuracy    <          4.8E-11 Ry

     The total energy is the sum of the following terms:
     one-electron contribution =     -19.78985901 Ry
     hartree contribution      =      24.89020183 Ry
     xc contribution           =     -49.30275441 Ry
     ewald contribution        =    -112.26964412 Ry

     convergence has been achieved in  11 iterations

     Forces acting on atoms (cartesian axes, Ry/au):

     atom    1 type  2   force =     0.00000000    0.00000000    0.00001494
     atom    2 type  2   force =     0.00000000    0.00000000   -0.00001494
     atom    3 type  1   force =    -0.00021258   -0.00102117   -0.00001133
     atom    4 type  1   force =     0.00021258    0.00102117   -0.00001133
     atom    5 type  1   force =    -0.00021258    0.00102117    0.00001133
     atom    6 type  1   force =     0.00021258   -0.00102117    0.00001133
     atom    7 type  3   force =    -0.00842112    0.00211691   -0.00001403
     atom    8 type  3   force =     0.00842112   -0.00211691   -0.00001403
     atom    9 type  3   force =    -0.00842112   -0.00211691    0.00001403
     atom   10 type  3   force =     0.00842112    0.00211691    0.00001403
     atom   11 type  3   force =     0.00556198    0.00671418    0.00000424
     atom   12 type  3   force =    -0.00556198   -0.00671418    0.00000424
     atom   13 type  3   force =     0.00556198   -0.00671418   -0.00000424
     atom   14 type  3   force =    -0.00556198    0.00671418   -0.00000424
     atom   15 type  3   force =     0.00105548   -0.00495457   -0.00751174
     atom   16 type  3   force =    -0.00105548    0.00495457   -0.00751174
     atom   17 type  3   force =     0.00105548    0.00495457    0.00751174
     atom   18 type  3   force =    -0.00105548   -0.00495457    0.00751174
     atom   19 type  3   force =    -0.00101540    0.00493528    0.00749963
     atom   20 type  3   force =     0.00101540   -0.00493528    0.00749963
     atom   21 type  3   force =    -0.00101540   -0.00493528   -0.00749963
     atom   22 type  3   force =     0.00101540    0.00493528   -0.00749963

     Total force =     0.035565     Total SCF correction =     0.000004


     Computing stress (Cartesian axis) and pressure

          total   stress  (Ry/bohr**3)                   (kbar)     P=       19.60
   0.00012372   0.00000000   0.00000000           18.20        0.00        0.00
   0.00000000   0.00012632   0.00000000            0.00       18.58        0.00
   0.00000000   0.00000000   0.00014975            0.00        0.00       22.03

     Volume is kept fixed: isostatic pressure set to zero

     BFGS Geometry Optimization
     Energy error            =      0.0E+00 Ry
     Gradient error          =      8.4E-03 Ry/Bohr
     Cell gradient error     =      2.4E+00 kbar

     number of scf cycles    =   1
     number of bfgs steps    =   0

     enthalpy           new  =    -156.4720556999 Ry

     new trust radius        =       0.0090602399 bohr
ibrav =      8
 celldm(1) =     12.48874802
 celldm(2) =      1.02563758
 celldm(3) =      0.69284491
Input lattice vectors:
     0.99976143     0.00000000     0.00000000
     0.00000000     1.02539290     0.00000000
     0.00000000     0.00000000     0.69267962
New lattice vectors in INITIAL alat:
     0.99976143     0.00000000     0.00000000
     0.00000000     1.02539290     0.00000000
     0.00000000     0.00000000     0.69267962
New lattice vectors in NEW alat (for information only):
     1.00000000     0.00000000     0.00000000
     0.00000000     1.02563758     0.00000000
     0.00000000     0.00000000     0.69284491
Discrepancy in bohr =     0.000000    0.000000    0.000000
     new conv_thr            =            1.0E-10 Ry

     new unit-cell volume =   1384.16118 a.u.^3 (   205.11153 Ang^3 )
     density =      2.70420 g/cm^3

CELL_PARAMETERS (alat= 12.49172812)
   0.999761434   0.000000000   0.000000000
   0.000000000   1.025392898   0.000000000
   0.000000000   0.000000000   0.692679620

ATOMIC_POSITIONS (crystal)
Ba               0.5000000000        0.5000000000        0.5001008933
Ba               0.0000000000        0.0000000000        0.9998991067
B                0.6102399982        0.2391226707        0.0000643472
B                0.3897600018        0.7608773293        0.0000643472
B                0.1102399982        0.2608773293        0.4999356528
B                0.8897600018        0.7391226707        0.4999356528
H                0.4334231163        0.2923209683        0.0002293107
H                0.5665768837        0.7076790317        0.0002293107
H                0.9334231163        0.2076790317        0.4997706893
H                0.0665768837        0.7923209683        0.4997706893
H                0.7225055210        0.3840790978       -0.0000078817
H                0.2774944790        0.6159209022       -0.0000078817
H                0.2225055210        0.1159209022        0.5000078817
H                0.7774944790        0.8840790978        0.5000078817
H                0.6393344187        0.1417076564        0.7796299247
H                0.3606655813        0.8582923436        0.7796299247
H                0.1393344187        0.3582923436        0.7203700753
H                0.8606655813        0.6417076564        0.7203700753
H                0.3604515453        0.8583411478        0.2203919379
H                0.6395484547        0.1416588522        0.2203919379
H                0.8604515453        0.6416588522        0.2796080621
H                0.1395484547        0.3583411478        0.2796080621



     Writing config-only to output data dir ./pwscf.save/ :
     XML data file
     NEW-OLD atomic charge density approx. for the potential

     total cpu time spent up to now is      187.5 secs

     Self-consistent Calculation

     iteration #  1     ecut=   100.00 Ry     beta= 0.70
     Davidson diagonalization with overlap
     ethr =  1.00E-06,  avg # of iterations =  3.1

     total cpu time spent up to now is      202.9 secs

     total energy              =    -156.47298465 Ry
     estimated scf accuracy    <       0.00029497 Ry

     iteration #  2     ecut=   100.00 Ry     beta= 0.70
     Davidson diagonalization with overlap
     ethr =  6.15E-07,  avg # of iterations =  2.0

     total cpu time spent up to now is      214.9 secs

     total energy              =    -156.47306210 Ry
     estimated scf accuracy    <       0.00004875 Ry

     iteration #  3     ecut=   100.00 Ry     beta= 0.70
     Davidson diagonalization with overlap
     ethr =  1.02E-07,  avg # of iterations =  2.0

     total cpu time spent up to now is      226.8 secs

     total energy              =    -156.47306910 Ry
     estimated scf accuracy    <       0.00000048 Ry

     iteration #  4     ecut=   100.00 Ry     beta= 0.70
     Davidson diagonalization with overlap
     ethr =  9.93E-10,  avg # of iterations =  3.4

     total cpu time spent up to now is      242.0 secs

     total energy              =    -156.47306934 Ry
     estimated scf accuracy    <       0.00000035 Ry

     iteration #  5     ecut=   100.00 Ry     beta= 0.70
     Davidson diagonalization with overlap
     ethr =  7.27E-10,  avg # of iterations =  2.0

     total cpu time spent up to now is      254.0 secs

     total energy              =    -156.47306939 Ry
     estimated scf accuracy    <          6.0E-09 Ry

     iteration #  6     ecut=   100.00 Ry     beta= 0.70
     Davidson diagonalization with overlap
     ethr =  1.25E-11,  avg # of iterations =  5.9

     total cpu time spent up to now is      272.6 secs

     total energy              =    -156.47306940 Ry
     estimated scf accuracy    <          2.3E-09 Ry

     iteration #  7     ecut=   100.00 Ry     beta= 0.70
     Davidson diagonalization with overlap
     ethr =  4.86E-12,  avg # of iterations =  2.1

     total cpu time spent up to now is      284.6 secs

     End of self-consistent calculation

          k = 0.0000 0.0000 0.0000 ( 23401 PWs)   bands (ev):

   -23.4605 -23.4489  -9.1048  -8.9976  -8.7588  -8.7110  -8.6849  -8.6069
    -5.8776  -4.8706  -4.0660  -3.9308  -1.5745  -0.6289  -0.5048  -0.1829
     0.2189   0.2468   0.3172   0.4167   0.5951   1.0382   1.0458   1.0913

          k = 0.0000 0.0000 0.3609 ( 23378 PWs)   bands (ev):

   -23.4507 -23.4425  -8.9918  -8.9903  -8.9655  -8.9169  -8.7363  -8.7100
    -5.3053  -4.5609  -4.2777  -4.1977  -1.1529  -0.8843  -0.4314  -0.3759
    -0.2103  -0.0761   0.3144   0.6227   0.8081   0.8678   0.9533   1.1046

          k = 0.0000 0.0000-0.7218 ( 23340 PWs)   bands (ev):

   -23.4385 -23.4385  -9.2510  -9.2508  -8.8154  -8.8154  -8.7457  -8.7457
    -4.5276  -4.5272  -4.4806  -4.4800  -0.9174  -0.9169  -0.9083  -0.9066
     0.1989   0.1998   0.3282   0.3300   0.9208   0.9212   0.9370   0.9371

          k = 0.0000 0.2438 0.0000 ( 23353 PWs)   bands (ev):

   -23.4588 -23.4506  -9.0706  -8.9600  -8.8286  -8.7556  -8.6732  -8.6181
    -5.6508  -4.7650  -4.3921  -4.0809  -1.1742  -0.7066  -0.7022   0.1169
     0.1451   0.1606   0.4686   0.6071   0.6839   0.6957   0.9427   1.0159

          k = 0.0000 0.2438 0.3609 ( 23370 PWs)   bands (ev):

   -23.4495 -23.4437  -9.0480  -9.0030  -8.8997  -8.8817  -8.7490  -8.7378
    -5.1940  -4.6463  -4.3183  -4.2371  -0.9543  -0.9104  -0.7274  -0.1094
    -0.0639   0.1361   0.1527   0.6797   0.7443   0.8091   0.9119   0.9714

          k = 0.0000 0.2438-0.7218 ( 23400 PWs)   bands (ev):

   -23.4385 -23.4385  -9.2672  -9.2670  -8.7917  -8.7917  -8.7446  -8.7446
    -4.8791  -4.8791  -4.1135  -4.1135  -1.0591  -1.0584  -0.7050  -0.7042
     0.2903   0.2905   0.3597   0.3612   0.7297   0.7298   0.9295   0.9298

          k = 0.0000-0.4876 0.0000 ( 23352 PWs)   bands (ev):

   -23.4547 -23.4547  -8.9709  -8.9709  -8.8568  -8.8568  -8.6454  -8.6454
    -5.0941  -5.0941  -4.4089  -4.4089  -0.8392  -0.8392  -0.2022  -0.2022
     0.0518   0.0518   0.5961   0.5961   0.7389   0.7389   0.8599   0.8599

          k = 0.0000-0.4876 0.3609 ( 23358 PWs)   bands (ev):

   -23.4466 -23.4466  -9.0487  -9.0487  -8.8266  -8.8266  -8.7886  -8.7886
    -4.9185  -4.9185  -4.3050  -4.3050  -0.8978  -0.8978  -0.4737  -0.4737
     0.2029   0.2029   0.4985   0.4985   0.6557   0.6557   0.8833   0.8833

          k = 0.0000-0.4876-0.7218 ( 23372 PWs)   bands (ev):

   -23.4385 -23.4385  -9.2819  -9.2819  -8.7714  -8.7714  -8.7414  -8.7414
    -5.0315  -5.0315  -3.9455  -3.9455  -1.1587  -1.1587  -0.4260  -0.4260
     0.2007   0.2007   0.4312   0.4312   0.5215   0.5215   0.9682   0.9682

          k = 0.2501 0.0000 0.0000 ( 23392 PWs)   bands (ev):

   -23.4587 -23.4506  -9.0577  -8.9764  -8.8135  -8.7792  -8.6732  -8.6181
    -5.6601  -4.8863  -4.1198  -4.1098  -1.3691  -0.4617  -0.4226  -0.3152
     0.2695   0.3190   0.3758   0.4449   0.5488   0.5794   0.9961   1.0311

          k = 0.2501 0.0000 0.3609 ( 23387 PWs)   bands (ev):

   -23.4495 -23.4437  -9.0378  -9.0174  -8.9345  -8.8525  -8.7688  -8.7232
    -5.1408  -4.5318  -4.3424  -4.3192  -1.1257  -0.8708  -0.7293  -0.1565
    -0.1560   0.1537   0.3848   0.5259   0.6837   0.8118   1.0188   1.0522

          k = 0.2501 0.0000-0.7218 ( 23396 PWs)   bands (ev):

   -23.4385 -23.4385  -9.2733  -9.2732  -8.7976  -8.7976  -8.7417  -8.7417
    -4.6598  -4.6594  -4.3115  -4.3112  -1.4237  -1.4232  -0.4174  -0.4169
     0.2026   0.2030   0.5780   0.5793   0.7062   0.7063   0.9637   0.9640

          k = 0.2501 0.2438 0.0000 ( 23378 PWs)   bands (ev):

   -23.4575 -23.4517  -9.0931  -8.9472  -8.8805  -8.7191  -8.6647  -8.6258
    -5.5072  -4.8385  -4.4035  -4.1324  -1.0545  -0.6887  -0.4788   0.0081
     0.0769   0.1340   0.4599   0.6166   0.6278   0.7200   0.7840   0.9437

          k = 0.2501 0.2438 0.3609 ( 23373 PWs)   bands (ev):

   -23.4486 -23.4445  -9.0418  -8.9924  -8.9820  -8.8263  -8.7845  -8.7140
    -5.0478  -4.5861  -4.4149  -4.3181  -1.0897  -0.8449  -0.7290  -0.1412
     0.0153   0.2083   0.3135   0.5506   0.6547   0.7730   0.9365   1.0282

          k = 0.2501 0.2438-0.7218 ( 23364 PWs)   bands (ev):

   -23.4385 -23.4385  -9.2813  -9.2526  -8.8260  -8.7738  -8.7515  -8.7420
    -4.8974  -4.6772  -4.2833  -4.0560  -1.3995  -1.3049  -0.4994  -0.3624
     0.1455   0.1521   0.5432   0.6247   0.7060   0.7665   0.9096   0.9363

          k = 0.2501-0.4876 0.0000 ( 23346 PWs)   bands (ev):

   -23.4546 -23.4546  -9.0637  -9.0637  -8.7630  -8.7630  -8.6449  -8.6449
    -5.1147  -5.1147  -4.3731  -4.3731  -0.7452  -0.7452  -0.2113  -0.2113
     0.0069   0.0069   0.5173   0.5173   0.7842   0.7842   0.7955   0.7955

          k = 0.2501-0.4876 0.3609 ( 23352 PWs)   bands (ev):

   -23.4465 -23.4465  -9.0344  -9.0344  -8.9075  -8.9075  -8.7318  -8.7318
    -4.8184  -4.8184  -4.3807  -4.3807  -0.9979  -0.9979  -0.3766  -0.3766
     0.1634   0.1634   0.5120   0.5120   0.6709   0.6709   0.9064   0.9064

          k = 0.2501-0.4876-0.7218 ( 23412 PWs)   bands (ev):

   -23.4384 -23.4384  -9.2620  -9.2620  -8.8031  -8.8031  -8.7497  -8.7497
    -4.9022  -4.9022  -4.0403  -4.0403  -1.2753  -1.2753  -0.4923  -0.4923
     0.2737   0.2737   0.4075   0.4075   0.7693   0.7693   0.9225   0.9225

          k =-0.5001 0.0000 0.0000 ( 23356 PWs)   bands (ev):

   -23.4546 -23.4546  -8.9401  -8.9401  -8.8993  -8.8993  -8.6454  -8.6454
    -5.1836  -5.1836  -4.2151  -4.2151  -0.9166  -0.9166  -0.0715  -0.0715
     0.3176   0.3176   0.3313   0.3313   0.4216   0.4216   0.8710   0.8710

          k =-0.5001 0.0000 0.3609 ( 23338 PWs)   bands (ev):

   -23.4465 -23.4465  -9.0545  -9.0545  -8.8545  -8.8545  -8.7697  -8.7697
    -4.7570  -4.7570  -4.4070  -4.4070  -1.0536  -1.0536  -0.4466  -0.4466
     0.1705   0.1705   0.3744   0.3744   0.7743   0.7743   1.0065   1.0065

          k =-0.5001 0.0000-0.7218 ( 23428 PWs)   bands (ev):

   -23.4384 -23.4384  -9.2939  -9.2939  -8.7827  -8.7827  -8.7364  -8.7364
    -4.7192  -4.7192  -4.2113  -4.2113  -1.6511  -1.6511  -0.0806  -0.0806
     0.2046   0.2046   0.3736   0.3736   0.9100   0.9100   0.9110   0.9110

          k =-0.5001 0.2438 0.0000 ( 23384 PWs)   bands (ev):

   -23.4546 -23.4546  -9.0617  -9.0617  -8.7709  -8.7709  -8.6449  -8.6449
    -5.1611  -5.1611  -4.2746  -4.2746  -0.8004  -0.8004  -0.0785  -0.0785
     0.0781   0.0781   0.2855   0.2855   0.6870   0.6870   0.8517   0.8517

          k =-0.5001 0.2438 0.3609 ( 23378 PWs)   bands (ev):

   -23.4465 -23.4465  -9.0382  -9.0382  -8.9123  -8.9123  -8.7306  -8.7306
    -4.7143  -4.7143  -4.4546  -4.4546  -1.0601  -1.0601  -0.4107  -0.4107
     0.2043   0.2043   0.4209   0.4209   0.7671   0.7671   0.9325   0.9325

          k =-0.5001 0.2438-0.7218 ( 23364 PWs)   bands (ev):

   -23.4384 -23.4384  -9.2686  -9.2686  -8.8064  -8.8064  -8.7490  -8.7490
    -4.7256  -4.7256  -4.1935  -4.1935  -1.5358  -1.5358  -0.3113  -0.3113
     0.2484   0.2484   0.4586   0.4586   0.8307   0.8307   0.9832   0.9832

          k =-0.5001-0.4876 0.0000 ( 23424 PWs)   bands (ev):

   -23.4546 -23.4546  -9.1177  -9.1177  -8.7079  -8.7079  -8.6444  -8.6444
    -5.1362  -5.1362  -4.3351  -4.3351  -0.6365  -0.6365  -0.2368  -0.2368
    -0.0333  -0.0333   0.4765   0.4765   0.6924   0.6924   0.8247   0.8247

          k =-0.5001-0.4876 0.3609 ( 23368 PWs)   bands (ev):

   -23.4465 -23.4465  -9.0057  -9.0057  -8.9698  -8.9698  -8.7080  -8.7080
    -4.6472  -4.6472  -4.5262  -4.5262  -1.0500  -1.0500  -0.4454  -0.4454
     0.3649   0.3649   0.5090   0.5090   0.6601   0.6601   0.8426   0.8426

          k =-0.5001-0.4876-0.7218 ( 23392 PWs)   bands (ev):

   -23.4384 -23.4384  -9.2395  -9.2395  -8.8375  -8.8375  -8.7577  -8.7577
    -4.7326  -4.7326  -4.1747  -4.1747  -1.3616  -1.3616  -0.6301  -0.6301
     0.4928   0.4928   0.5406   0.5406   0.6867   0.6867   0.9446   0.9446

     highest occupied level (ev):     1.1046

!    total energy              =    -156.47306940 Ry
     estimated scf accuracy    <          4.9E-11 Ry

     The total energy is the sum of the following terms:
     one-electron contribution =     -19.52095451 Ry
     hartree contribution      =      24.75680714 Ry
     xc contribution           =     -49.26932728 Ry
     ewald contribution        =    -112.43959475 Ry

     convergence has been achieved in   7 iterations

     Forces acting on atoms (cartesian axes, Ry/au):

     atom    1 type  2   force =     0.00000000    0.00000000    0.00001259
     atom    2 type  2   force =     0.00000000    0.00000000   -0.00001259
     atom    3 type  1   force =    -0.00026840   -0.00112553   -0.00001192
     atom    4 type  1   force =     0.00026840    0.00112553   -0.00001192
     atom    5 type  1   force =    -0.00026840    0.00112553    0.00001192
     atom    6 type  1   force =     0.00026840   -0.00112553    0.00001192
     atom    7 type  3   force =    -0.00509792    0.00112644   -0.00001728
     atom    8 type  3   force =     0.00509792   -0.00112644   -0.00001728
     atom    9 type  3   force =    -0.00509792   -0.00112644    0.00001728
     atom   10 type  3   force =     0.00509792    0.00112644    0.00001728
     atom   11 type  3   force =     0.00335773    0.00375602    0.00000465
     atom   12 type  3   force =    -0.00335773   -0.00375602    0.00000465
     atom   13 type  3   force =     0.00335773   -0.00375602   -0.00000465
     atom   14 type  3   force =    -0.00335773    0.00375602   -0.00000465
     atom   15 type  3   force =     0.00046723   -0.00295202   -0.00428814
     atom   16 type  3   force =    -0.00046723    0.00295202   -0.00428814
     atom   17 type  3   force =     0.00046723    0.00295202    0.00428814
     atom   18 type  3   force =    -0.00046723   -0.00295202    0.00428814
     atom   19 type  3   force =    -0.00042488    0.00293503    0.00428038
     atom   20 type  3   force =     0.00042488   -0.00293503    0.00428038
     atom   21 type  3   force =    -0.00042488   -0.00293503   -0.00428038
     atom   22 type  3   force =     0.00042488    0.00293503   -0.00428038

     Total force =     0.020825     Total SCF correction =     0.000004


     Computing stress (Cartesian axis) and pressure

          total   stress  (Ry/bohr**3)                   (kbar)     P=       15.12
   0.00009593   0.00000000   0.00000000           14.11        0.00        0.00
   0.00000000   0.00009689   0.00000000            0.00       14.25        0.00
   0.00000000   0.00000000   0.00011546            0.00        0.00       16.99

     Volume is kept fixed: isostatic pressure set to zero
     Energy error            =      1.0E-03 Ry
     Gradient error          =      5.1E-03 Ry/Bohr
     Cell gradient error     =      1.9E+00 kbar

     number of scf cycles    =   2
     number of bfgs steps    =   1

     enthalpy           old  =    -156.4720556999 Ry
     enthalpy           new  =    -156.4730693988 Ry

     CASE: enthalpy          _new < enthalpy          _old

     new trust radius        =       0.0099685390 bohr
ibrav =      8
 celldm(1) =     12.48469238
 celldm(2) =      1.02568458
 celldm(3) =      0.69348856
Input lattice vectors:
     0.99943677     0.00000000     0.00000000
     0.00000000     1.02510689     0.00000000
     0.00000000     0.00000000     0.69309796
New lattice vectors in INITIAL alat:
     0.99943677     0.00000000     0.00000000
     0.00000000     1.02510689     0.00000000
     0.00000000     0.00000000     0.69309796
New lattice vectors in NEW alat (for information only):
     1.00000000     0.00000000     0.00000000
     0.00000000     1.02568458     0.00000000
     0.00000000     0.00000000     0.69348856
Discrepancy in bohr =     0.000000    0.000000    0.000000
     new conv_thr            =            1.0E-10 Ry

     new unit-cell volume =   1384.16118 a.u.^3 (   205.11153 Ang^3 )
     density =      2.70420 g/cm^3

CELL_PARAMETERS (alat= 12.49172812)
   0.999436768   0.000000000   0.000000000
   0.000000000   1.025106887   0.000000000
   0.000000000   0.000000000   0.693097961

ATOMIC_POSITIONS (crystal)
Ba               0.5000000000        0.5000000000        0.5001036619
Ba               0.0000000000        0.0000000000        0.9998963381
B                0.6101992170        0.2389558228        0.0000617289
B                0.3898007830        0.7610441772        0.0000617289
B                0.1101992170        0.2610441772        0.4999382711
B                0.8898007830        0.7389558228        0.4999382711
H                0.4326456013        0.2924886619        0.0002255160
H                0.5673543987        0.7075113381        0.0002255160
H                0.9326456013        0.2075113381        0.4997744840
H                0.0673543987        0.7924886619        0.4997744840
H                0.7230176395        0.3846380346       -0.0000068595
H                0.2769823605        0.6153619654       -0.0000068595
H                0.2230176395        0.1153619654        0.5000068595
H                0.7769823605        0.8846380346        0.5000068595
H                0.6394058669        0.1412685726        0.7786843388
H                0.3605941331        0.8587314274        0.7786843388
H                0.1394058669        0.3587314274        0.7213156612
H                0.8605941331        0.6412685726        0.7213156612
H                0.3603865357        0.8587777102        0.2213358126
H                0.6396134643        0.1412222898        0.2213358126
H                0.8603865357        0.6412222898        0.2786641874
H                0.1396134643        0.3587777102        0.2786641874



     Writing config-only to output data dir ./pwscf.save/ :
     XML data file
     NEW-OLD atomic charge density approx. for the potential

     total cpu time spent up to now is      296.8 secs

     Self-consistent Calculation

     iteration #  1     ecut=   100.00 Ry     beta= 0.70
     Davidson diagonalization with overlap
     ethr =  1.00E-06,  avg # of iterations =  3.7

     total cpu time spent up to now is      312.9 secs

     total energy              =    -156.47348253 Ry
     estimated scf accuracy    <       0.00036880 Ry

     iteration #  2     ecut=   100.00 Ry     beta= 0.70
     Davidson diagonalization with overlap
     ethr =  7.68E-07,  avg # of iterations =  2.0

     total cpu time spent up to now is      324.9 secs

     total energy              =    -156.47358200 Ry
     estimated scf accuracy    <       0.00006514 Ry

     iteration #  3     ecut=   100.00 Ry     beta= 0.70
     Davidson diagonalization with overlap
     ethr =  1.36E-07,  avg # of iterations =  2.0

     total cpu time spent up to now is      337.0 secs

     total energy              =    -156.47359117 Ry
     estimated scf accuracy    <       0.00000069 Ry

     iteration #  4     ecut=   100.00 Ry     beta= 0.70
     Davidson diagonalization with overlap
     ethr =  1.44E-09,  avg # of iterations =  3.2

     total cpu time spent up to now is      352.0 secs

     total energy              =    -156.47359152 Ry
     estimated scf accuracy    <       0.00000046 Ry

     iteration #  5     ecut=   100.00 Ry     beta= 0.70
     Davidson diagonalization with overlap
     ethr =  9.67E-10,  avg # of iterations =  2.0

     total cpu time spent up to now is      364.0 secs

     total energy              =    -156.47359159 Ry
     estimated scf accuracy    <          8.8E-09 Ry

     iteration #  6     ecut=   100.00 Ry     beta= 0.70
     Davidson diagonalization with overlap
     ethr =  1.84E-11,  avg # of iterations =  5.6

     total cpu time spent up to now is      382.2 secs

     total energy              =    -156.47359160 Ry
     estimated scf accuracy    <          4.3E-09 Ry

     iteration #  7     ecut=   100.00 Ry     beta= 0.70
     Davidson diagonalization with overlap
     ethr =  9.04E-12,  avg # of iterations =  2.0

     total cpu time spent up to now is      394.2 secs

     End of self-consistent calculation

          k = 0.0000 0.0000 0.0000 ( 23401 PWs)   bands (ev):

   -23.4515 -23.4399  -9.0948  -8.9887  -8.7499  -8.7026  -8.6769  -8.5986
    -5.8595  -4.8405  -4.0376  -3.9003  -1.5743  -0.6159  -0.4983  -0.1635
     0.2324   0.2556   0.3252   0.4298   0.6053   1.0602   1.0693   1.1166

          k = 0.0000 0.0000 0.3607 ( 23378 PWs)   bands (ev):

   -23.4418 -23.4336  -8.9819  -8.9811  -8.9553  -8.9084  -8.7277  -8.7017
    -5.2872  -4.5329  -4.2476  -4.1659  -1.1548  -0.8817  -0.4285  -0.3623
    -0.2005  -0.0658   0.3297   0.6414   0.8295   0.8898   0.9714   1.1272

          k = 0.0000 0.0000-0.7214 ( 23340 PWs)   bands (ev):

   -23.4296 -23.4296  -9.2397  -9.2395  -8.8074  -8.8074  -8.7373  -8.7372
    -4.5046  -4.5042  -4.4483  -4.4478  -0.9185  -0.9180  -0.9080  -0.9064
     0.2165   0.2173   0.3438   0.3456   0.9436   0.9438   0.9564   0.9566

          k = 0.0000 0.2439 0.0000 ( 23353 PWs)   bands (ev):

   -23.4498 -23.4416  -9.0608  -8.9510  -8.8197  -8.7472  -8.6651  -8.6098
    -5.6320  -4.7346  -4.3677  -4.0507  -1.1699  -0.7002  -0.6920   0.1284
     0.1546   0.1808   0.4829   0.6192   0.7048   0.7077   0.9646   1.0391

          k = 0.0000 0.2439 0.3607 ( 23370 PWs)   bands (ev):

   -23.4406 -23.4348  -9.0384  -8.9931  -8.8902  -8.8731  -8.7403  -8.7296
    -5.1744  -4.6189  -4.2898  -4.2064  -0.9539  -0.9082  -0.7225  -0.1014
    -0.0519   0.1536   0.1651   0.6985   0.7644   0.8303   0.9313   0.9925

          k = 0.0000 0.2439-0.7214 ( 23400 PWs)   bands (ev):

   -23.4296 -23.4296  -9.2560  -9.2558  -8.7838  -8.7838  -8.7361  -8.7361
    -4.8516  -4.8515  -4.0861  -4.0860  -1.0587  -1.0580  -0.7052  -0.7043
     0.3078   0.3081   0.3762   0.3778   0.7486   0.7487   0.9514   0.9516

          k = 0.0000-0.4878 0.0000 ( 23352 PWs)   bands (ev):

   -23.4457 -23.4457  -8.9612  -8.9612  -8.8485  -8.8485  -8.6372  -8.6372
    -5.0725  -5.0725  -4.3797  -4.3797  -0.8336  -0.8336  -0.1884  -0.1884
     0.0617   0.0617   0.6182   0.6182   0.7516   0.7516   0.8802   0.8802

          k = 0.0000-0.4878 0.3607 ( 23358 PWs)   bands (ev):

   -23.4376 -23.4376  -9.0390  -9.0390  -8.8170  -8.8170  -8.7806  -8.7806
    -4.8952  -4.8952  -4.2761  -4.2761  -0.8959  -0.8959  -0.4667  -0.4667
     0.2175   0.2175   0.5131   0.5131   0.6777   0.6777   0.9034   0.9034

          k = 0.0000-0.4878-0.7214 ( 23372 PWs)   bands (ev):

   -23.4296 -23.4296  -9.2708  -9.2708  -8.7635  -8.7635  -8.7328  -8.7328
    -5.0038  -5.0038  -3.9185  -3.9185  -1.1585  -1.1585  -0.4261  -0.4261
     0.2191   0.2191   0.4472   0.4472   0.5406   0.5406   0.9905   0.9905

          k = 0.2501 0.0000 0.0000 ( 23392 PWs)   bands (ev):

   -23.4498 -23.4416  -9.0478  -8.9677  -8.8044  -8.7708  -8.6652  -8.6098
    -5.6409  -4.8579  -4.0911  -4.0808  -1.3677  -0.4515  -0.4145  -0.3001
     0.2807   0.3294   0.3866   0.4622   0.5609   0.5981   1.0194   1.0565

          k = 0.2501 0.0000 0.3607 ( 23387 PWs)   bands (ev):

   -23.4405 -23.4347  -9.0283  -9.0076  -8.9252  -8.8437  -8.7602  -8.7149
    -5.1213  -4.5044  -4.3123  -4.2892  -1.1282  -0.8659  -0.7286  -0.1454
    -0.1417   0.1662   0.4023   0.5441   0.7015   0.8309   1.0417   1.0729

          k = 0.2501 0.0000-0.7214 ( 23396 PWs)   bands (ev):

   -23.4296 -23.4296  -9.2621  -9.2620  -8.7896  -8.7896  -8.7333  -8.7333
    -4.6299  -4.6295  -4.2858  -4.2854  -1.4268  -1.4263  -0.4144  -0.4140
     0.2202   0.2207   0.5952   0.5965   0.7249   0.7250   0.9853   0.9857

          k = 0.2501 0.2439 0.0000 ( 23378 PWs)   bands (ev):

   -23.4485 -23.4427  -9.0836  -8.9378  -8.8720  -8.7105  -8.6567  -8.6175
    -5.4868  -4.8103  -4.3773  -4.1043  -1.0490  -0.6811  -0.4672   0.0215
     0.0867   0.1438   0.4793   0.6290   0.6480   0.7331   0.8063   0.9652

          k = 0.2501 0.2439 0.3607 ( 23373 PWs)   bands (ev):

   -23.4397 -23.4356  -9.0320  -8.9826  -8.9731  -8.8168  -8.7763  -8.7056
    -5.0270  -4.5582  -4.3877  -4.2881  -1.0906  -0.8439  -0.7231  -0.1293
     0.0284   0.2220   0.3300   0.5676   0.6743   0.7930   0.9571   1.0489

          k = 0.2501 0.2439-0.7214 ( 23364 PWs)   bands (ev):

   -23.4296 -23.4296  -9.2701  -9.2414  -8.8181  -8.7659  -8.7432  -8.7335
    -4.8685  -4.6487  -4.2563  -4.0293  -1.4022  -1.3078  -0.4954  -0.3600
     0.1625   0.1693   0.5586   0.6417   0.7272   0.7863   0.9288   0.9600

          k = 0.2501-0.4878 0.0000 ( 23346 PWs)   bands (ev):

   -23.4456 -23.4456  -9.0544  -9.0544  -8.7544  -8.7544  -8.6367  -8.6367
    -5.0910  -5.0910  -4.3463  -4.3463  -0.7372  -0.7372  -0.1975  -0.1975
     0.0162   0.0162   0.5354   0.5354   0.7976   0.7976   0.8169   0.8169

          k = 0.2501-0.4878 0.3607 ( 23352 PWs)   bands (ev):

   -23.4376 -23.4376  -9.0249  -9.0249  -8.8983  -8.8983  -8.7234  -8.7234
    -4.7942  -4.7942  -4.3525  -4.3525  -0.9973  -0.9973  -0.3669  -0.3669
     0.1769   0.1769   0.5291   0.5291   0.6906   0.6906   0.9263   0.9263

          k = 0.2501-0.4878-0.7214 ( 23412 PWs)   bands (ev):

   -23.4295 -23.4295  -9.2508  -9.2508  -8.7952  -8.7952  -8.7413  -8.7413
    -4.8739  -4.8739  -4.0132  -4.0132  -1.2777  -1.2777  -0.4887  -0.4887
     0.2911   0.2911   0.4233   0.4233   0.7892   0.7892   0.9443   0.9443

          k =-0.5003 0.0000 0.0000 ( 23356 PWs)   bands (ev):

   -23.4456 -23.4456  -8.9303  -8.9303  -8.8911  -8.8911  -8.6372  -8.6372
    -5.1609  -5.1609  -4.1858  -4.1858  -0.9126  -0.9126  -0.0596  -0.0596
     0.3256   0.3256   0.3514   0.3514   0.4358   0.4358   0.8950   0.8950

          k =-0.5003 0.0000 0.3607 ( 23338 PWs)   bands (ev):

   -23.4376 -23.4376  -9.0448  -9.0448  -8.8453  -8.8453  -8.7613  -8.7613
    -4.7340  -4.7340  -4.3768  -4.3768  -1.0548  -1.0548  -0.4383  -0.4383
     0.1866   0.1866   0.3909   0.3909   0.7919   0.7919   1.0289   1.0289

          k =-0.5003 0.0000-0.7214 ( 23428 PWs)   bands (ev):

   -23.4295 -23.4295  -9.2828  -9.2828  -8.7748  -8.7748  -8.7280  -8.7280
    -4.6880  -4.6880  -4.1864  -4.1864  -1.6554  -1.6554  -0.0765  -0.0765
     0.2222   0.2222   0.3907   0.3907   0.9289   0.9289   0.9335   0.9335

          k =-0.5003 0.2439 0.0000 ( 23384 PWs)   bands (ev):

   -23.4456 -23.4456  -9.0525  -9.0525  -8.7621  -8.7621  -8.6367  -8.6367
    -5.1371  -5.1371  -4.2475  -4.2475  -0.7930  -0.7930  -0.0658  -0.0658
     0.0872   0.0872   0.3031   0.3031   0.7003   0.7003   0.8746   0.8746

          k =-0.5003 0.2439 0.3607 ( 23378 PWs)   bands (ev):

   -23.4376 -23.4376  -9.0288  -9.0288  -8.9030  -8.9030  -8.7221  -8.7221
    -4.6904  -4.6904  -4.4256  -4.4256  -1.0607  -1.0607  -0.4015  -0.4015
     0.2204   0.2204   0.4371   0.4371   0.7859   0.7859   0.9531   0.9531

          k =-0.5003 0.2439-0.7214 ( 23364 PWs)   bands (ev):

   -23.4295 -23.4295  -9.2574  -9.2574  -8.7985  -8.7985  -8.7405  -8.7405
    -4.6954  -4.6954  -4.1676  -4.1676  -1.5399  -1.5399  -0.3061  -0.3061
     0.2647   0.2647   0.4760   0.4760   0.8514   0.8514   1.0040   1.0040

          k =-0.5003-0.4878 0.0000 ( 23424 PWs)   bands (ev):

   -23.4456 -23.4456  -9.1085  -9.1085  -8.6992  -8.6992  -8.6362  -8.6362
    -5.1106  -5.1106  -4.3105  -4.3105  -0.6236  -0.6236  -0.2270  -0.2270
    -0.0245  -0.0245   0.4959   0.4959   0.7113   0.7113   0.8387   0.8387

          k =-0.5003-0.4878 0.3607 ( 23368 PWs)   bands (ev):

   -23.4376 -23.4376  -8.9971  -8.9971  -8.9597  -8.9597  -8.6996  -8.6996
    -4.6218  -4.6218  -4.4991  -4.4991  -1.0501  -1.0501  -0.4356  -0.4356
     0.3794   0.3794   0.5290   0.5290   0.6795   0.6795   0.8593   0.8593

          k =-0.5003-0.4878-0.7214 ( 23392 PWs)   bands (ev):

   -23.4295 -23.4295  -9.2282  -9.2282  -8.8296  -8.8296  -8.7494  -8.7494
    -4.7034  -4.7034  -4.1478  -4.1478  -1.3655  -1.3655  -0.6258  -0.6258
     0.5097   0.5097   0.5608   0.5608   0.7066   0.7066   0.9637   0.9637

     highest occupied level (ev):     1.1272

!    total energy              =    -156.47359160 Ry
     estimated scf accuracy    <          8.7E-11 Ry

     The total energy is the sum of the following terms:
     one-electron contribution =     -19.21458852 Ry
     hartree contribution      =      24.60489980 Ry
     xc contribution           =     -49.23226047 Ry
     ewald contribution        =    -112.63164241 Ry

     convergence has been achieved in   7 iterations

     Forces acting on atoms (cartesian axes, Ry/au):

     atom    1 type  2   force =     0.00000000    0.00000000    0.00000783
     atom    2 type  2   force =     0.00000000    0.00000000   -0.00000783
     atom    3 type  1   force =    -0.00033286   -0.00070901   -0.00000932
     atom    4 type  1   force =     0.00033286    0.00070901   -0.00000932
     atom    5 type  1   force =    -0.00033286    0.00070901    0.00000932
     atom    6 type  1   force =     0.00033286   -0.00070901    0.00000932
     atom    7 type  3   force =    -0.00143499    0.00002634   -0.00002116
     atom    8 type  3   force =     0.00143499   -0.00002634   -0.00002116
     atom    9 type  3   force =    -0.00143499   -0.00002634    0.00002116
     atom   10 type  3   force =     0.00143499    0.00002634    0.00002116
     atom   11 type  3   force =     0.00083071    0.00037633    0.00000461
     atom   12 type  3   force =    -0.00083071   -0.00037633    0.00000461
     atom   13 type  3   force =     0.00083071   -0.00037633   -0.00000461
     atom   14 type  3   force =    -0.00083071    0.00037633   -0.00000461
     atom   15 type  3   force =    -0.00014110   -0.00092605   -0.00089071
     atom   16 type  3   force =     0.00014110    0.00092605   -0.00089071
     atom   17 type  3   force =    -0.00014110    0.00092605    0.00089071
     atom   18 type  3   force =     0.00014110   -0.00092605    0.00089071
     atom   19 type  3   force =     0.00018448    0.00091176    0.00088615
     atom   20 type  3   force =    -0.00018448   -0.00091176    0.00088615
     atom   21 type  3   force =     0.00018448   -0.00091176   -0.00088615
     atom   22 type  3   force =    -0.00018448    0.00091176   -0.00088615

     Total force =     0.005226     Total SCF correction =     0.000005


     Computing stress (Cartesian axis) and pressure

          total   stress  (Ry/bohr**3)                   (kbar)     P=       10.18
   0.00006481   0.00000000   0.00000000            9.53        0.00        0.00
   0.00000000   0.00006475   0.00000000            0.00        9.52        0.00
   0.00000000   0.00000000   0.00007811            0.00        0.00       11.49

     Volume is kept fixed: isostatic pressure set to zero
     Energy error            =      5.2E-04 Ry
     Gradient error          =      1.4E-03 Ry/Bohr
     Cell gradient error     =      1.3E+00 kbar

     number of scf cycles    =   3
     number of bfgs steps    =   2

     enthalpy           old  =    -156.4730693988 Ry
     enthalpy           new  =    -156.4735915997 Ry

     CASE: enthalpy          _new < enthalpy          _old

     new trust radius        =       0.0034944398 bohr
ibrav =      8
 celldm(1) =     12.48221983
 celldm(2) =      1.02569059
 celldm(3) =      0.69389669
Input lattice vectors:
     0.99923883     0.00000000     0.00000000
     0.00000000     1.02490986     0.00000000
     0.00000000     0.00000000     0.69336852
New lattice vectors in INITIAL alat:
     0.99923883     0.00000000     0.00000000
     0.00000000     1.02490986     0.00000000
     0.00000000     0.00000000     0.69336852
New lattice vectors in NEW alat (for information only):
     1.00000000     0.00000000     0.00000000
     0.00000000     1.02569059     0.00000000
     0.00000000     0.00000000     0.69389669
Discrepancy in bohr =     0.000000    0.000000    0.000000
     new conv_thr            =            5.2E-11 Ry

     new unit-cell volume =   1384.16118 a.u.^3 (   205.11153 Ang^3 )
     density =      2.70420 g/cm^3

CELL_PARAMETERS (alat= 12.49172812)
   0.999238834   0.000000000   0.000000000
   0.000000000   1.024909865   0.000000000
   0.000000000   0.000000000   0.693368517

ATOMIC_POSITIONS (crystal)
Ba               0.5000000000        0.5000000000        0.5001053024
Ba               0.0000000000        0.0000000000        0.9998946976
B                0.6101576012        0.2388562496        0.0000598880
B                0.3898423988        0.7611437504        0.0000598880
B                0.1101576012        0.2611437504        0.4999401120
B                0.8898423988        0.7388562496        0.4999401120
H                0.4323674369        0.2925188752        0.0002216814
H                0.5676325631        0.7074811248        0.0002216814
H                0.9323674369        0.2074811248        0.4997783186
H                0.0676325631        0.7925188752        0.4997783186
H                0.7231887814        0.3847681986       -0.0000059922
H                0.2768112186        0.6152318014       -0.0000059922
H                0.2231887814        0.1152318014        0.5000059922
H                0.7768112186        0.8847681986        0.5000059922
H                0.6394028184        0.1411016433        0.7783938144
H                0.3605971816        0.8588983567        0.7783938144
H                0.1394028184        0.3588983567        0.7216061856
H                0.8605971816        0.6411016433        0.7216061856
H                0.3603951908        0.8589427630        0.2216253620
H                0.6396048092        0.1410572370        0.2216253620
H                0.8603951908        0.6410572370        0.2783746380
H                0.1396048092        0.3589427630        0.2783746380



     Writing config-only to output data dir ./pwscf.save/ :
     XML data file
     NEW-OLD atomic charge density approx. for the potential

     total cpu time spent up to now is      406.4 secs

     Self-consistent Calculation

     iteration #  1     ecut=   100.00 Ry     beta= 0.70
     Davidson diagonalization with overlap
     ethr =  1.00E-06,  avg # of iterations =  2.0

     Threshold (ethr) on eigenvalues was too large:
     Diagonalizing with lowered threshold

     Davidson diagonalization with overlap
     ethr =  6.29E-08,  avg # of iterations =  2.0

     total cpu time spent up to now is      429.6 secs

     total energy              =    -156.47362152 Ry
     estimated scf accuracy    <       0.00003995 Ry

     iteration #  2     ecut=   100.00 Ry     beta= 0.70
     Davidson diagonalization with overlap
     ethr =  8.32E-08,  avg # of iterations =  2.0

     total cpu time spent up to now is      441.6 secs

     total energy              =    -156.47363281 Ry
     estimated scf accuracy    <       0.00000772 Ry

     iteration #  3     ecut=   100.00 Ry     beta= 0.70
     Davidson diagonalization with overlap
     ethr =  1.61E-08,  avg # of iterations =  2.0

     total cpu time spent up to now is      453.6 secs

     total energy              =    -156.47363383 Ry
     estimated scf accuracy    <       0.00000012 Ry

     iteration #  4     ecut=   100.00 Ry     beta= 0.70
     Davidson diagonalization with overlap
     ethr =  2.46E-10,  avg # of iterations =  3.0

     total cpu time spent up to now is      468.4 secs

     total energy              =    -156.47363389 Ry
     estimated scf accuracy    <       0.00000007 Ry

     iteration #  5     ecut=   100.00 Ry     beta= 0.70
     Davidson diagonalization with overlap
     ethr =  1.36E-10,  avg # of iterations =  2.0

     total cpu time spent up to now is      480.4 secs

     total energy              =    -156.47363390 Ry
     estimated scf accuracy    <          7.7E-10 Ry

     iteration #  6     ecut=   100.00 Ry     beta= 0.70
     Davidson diagonalization with overlap
     ethr =  1.60E-12,  avg # of iterations =  6.0

     total cpu time spent up to now is      500.8 secs

     total energy              =    -156.47363390 Ry
     estimated scf accuracy    <          6.0E-10 Ry

     iteration #  7     ecut=   100.00 Ry     beta= 0.70
     Davidson diagonalization with overlap
     ethr =  1.25E-12,  avg # of iterations =  2.0

     total cpu time spent up to now is      512.7 secs

     End of self-consistent calculation

          k = 0.0000 0.0000 0.0000 ( 23401 PWs)   bands (ev):

   -23.4490 -23.4374  -9.0917  -8.9861  -8.7472  -8.7002  -8.6747  -8.5963
    -5.8537  -4.8308  -4.0284  -3.8904  -1.5732  -0.6115  -0.4961  -0.1561
     0.2360   0.2598   0.3262   0.4334   0.6073   1.0678   1.0770   1.1265

          k = 0.0000 0.0000 0.3606 ( 23378 PWs)   bands (ev):

   -23.4394 -23.4311  -8.9786  -8.9783  -8.9519  -8.9060  -8.7251  -8.6994
    -5.2818  -4.5243  -4.2377  -4.1553  -1.1551  -0.8805  -0.4269  -0.3579
    -0.1978  -0.0631   0.3348   0.6475   0.8364   0.8978   0.9775   1.1358

          k = 0.0000 0.0000-0.7211 ( 23340 PWs)   bands (ev):

   -23.4272 -23.4272  -9.2356  -9.2353  -8.8053  -8.8053  -8.7349  -8.7348
    -4.4981  -4.4977  -4.4373  -4.4367  -0.9192  -0.9186  -0.9073  -0.9057
     0.2222   0.2230   0.3487   0.3505   0.9523   0.9524   0.9630   0.9634

          k = 0.0000 0.2439 0.0000 ( 23353 PWs)   bands (ev):

   -23.4473 -23.4391  -9.0577  -8.9482  -8.8171  -8.7447  -8.6630  -8.6075
    -5.6259  -4.7246  -4.3601  -4.0409  -1.1673  -0.6978  -0.6884   0.1310
     0.1563   0.1883   0.4888   0.6223   0.7105   0.7131   0.9722   1.0468

          k = 0.0000 0.2439 0.3606 ( 23370 PWs)   bands (ev):

   -23.4381 -23.4323  -9.0354  -8.9898  -8.8871  -8.8706  -8.7377  -8.7273
    -5.1685  -4.6105  -4.2805  -4.1963  -0.9534  -0.9072  -0.7206  -0.0993
    -0.0481   0.1598   0.1689   0.7048   0.7712   0.8383   0.9375   1.0000

          k = 0.0000 0.2439-0.7211 ( 23400 PWs)   bands (ev):

   -23.4272 -23.4272  -9.2519  -9.2518  -8.7817  -8.7816  -8.7337  -8.7337
    -4.8428  -4.8428  -4.0774  -4.0774  -1.0581  -1.0574  -0.7055  -0.7046
     0.3137   0.3140   0.3818   0.3834   0.7549   0.7550   0.9596   0.9598

          k = 0.0000-0.4878 0.0000 ( 23352 PWs)   bands (ev):

   -23.4432 -23.4432  -8.9581  -8.9581  -8.8461  -8.8461  -8.6350  -8.6350
    -5.0653  -5.0653  -4.3704  -4.3704  -0.8313  -0.8313  -0.1828  -0.1828
     0.0637   0.0637   0.6266   0.6266   0.7549   0.7549   0.8871   0.8871

          k = 0.0000-0.4878 0.3606 ( 23358 PWs)   bands (ev):

   -23.4352 -23.4352  -9.0359  -9.0359  -8.8141  -8.8141  -8.7782  -8.7782
    -4.8879  -4.8879  -4.2668  -4.2668  -0.8951  -0.8951  -0.4641  -0.4641
     0.2222   0.2222   0.5176   0.5176   0.6862   0.6862   0.9098   0.9098

          k = 0.0000-0.4878-0.7211 ( 23372 PWs)   bands (ev):

   -23.4272 -23.4272  -9.2669  -9.2669  -8.7614  -8.7614  -8.7303  -8.7303
    -4.9950  -4.9950  -3.9101  -3.9101  -1.1579  -1.1579  -0.4265  -0.4265
     0.2258   0.2258   0.4523   0.4523   0.5471   0.5471   0.9986   0.9986

          k = 0.2502 0.0000 0.0000 ( 23392 PWs)   bands (ev):

   -23.4473 -23.4391  -9.0447  -8.9651  -8.8016  -8.7684  -8.6630  -8.6075
    -5.6346  -4.8487  -4.0818  -4.0714  -1.3662  -0.4472  -0.4120  -0.2948
     0.2831   0.3318   0.3892   0.4692   0.5638   0.6041   1.0275   1.0663

          k = 0.2502 0.0000 0.3606 ( 23387 PWs)   bands (ev):

   -23.4381 -23.4323  -9.0252  -9.0045  -8.9223  -8.8410  -8.7577  -8.7124
    -5.1154  -4.4959  -4.3023  -4.2793  -1.1289  -0.8639  -0.7283  -0.1418
    -0.1368   0.1699   0.4085   0.5503   0.7070   0.8371   1.0505   1.0799

          k = 0.2502 0.0000-0.7211 ( 23396 PWs)   bands (ev):

   -23.4272 -23.4272  -9.2581  -9.2579  -8.7875  -8.7874  -8.7309  -8.7308
    -4.6201  -4.6197  -4.2779  -4.2776  -1.4277  -1.4272  -0.4133  -0.4130
     0.2260   0.2264   0.6010   0.6023   0.7317   0.7319   0.9929   0.9934

          k = 0.2502 0.2439 0.0000 ( 23378 PWs)   bands (ev):

   -23.4461 -23.4403  -9.0807  -8.9349  -8.8695  -8.7080  -8.6545  -8.6152
    -5.4801  -4.8009  -4.3692  -4.0953  -1.0461  -0.6781  -0.4631   0.0264
     0.0886   0.1457   0.4865   0.6321   0.6557   0.7364   0.8139   0.9731

          k = 0.2502 0.2439 0.3606 ( 23373 PWs)   bands (ev):

   -23.4372 -23.4331  -9.0289  -8.9793  -8.9706  -8.8138  -8.7739  -8.7032
    -5.0207  -4.5494  -4.3789  -4.2783  -1.0909  -0.8434  -0.7206  -0.1254
     0.0328   0.2263   0.3355   0.5731   0.6814   0.8000   0.9640   1.0561

          k = 0.2502 0.2439-0.7211 ( 23364 PWs)   bands (ev):

   -23.4272 -23.4272  -9.2661  -9.2373  -8.8160  -8.7637  -8.7408  -8.7311
    -4.8592  -4.6395  -4.2478  -4.0212  -1.4029  -1.3087  -0.4939  -0.3593
     0.1681   0.1754   0.5636   0.6471   0.7354   0.7931   0.9350   0.9690

          k = 0.2502-0.4878 0.0000 ( 23346 PWs)   bands (ev):

   -23.4431 -23.4431  -9.0515  -9.0515  -8.7518  -8.7518  -8.6345  -8.6345
    -5.0830  -5.0830  -4.3380  -4.3380  -0.7339  -0.7339  -0.1921  -0.1921
     0.0179   0.0179   0.5422   0.5422   0.8011   0.8011   0.8245   0.8245

          k = 0.2502-0.4878 0.3606 ( 23352 PWs)   bands (ev):

   -23.4352 -23.4352  -9.0219  -9.0219  -8.8954  -8.8954  -8.7209  -8.7209
    -4.7867  -4.7867  -4.3434  -4.3434  -0.9970  -0.9970  -0.3633  -0.3633
     0.1811   0.1811   0.5348   0.5348   0.6979   0.6979   0.9328   0.9328

          k = 0.2502-0.4878-0.7211 ( 23412 PWs)   bands (ev):

   -23.4271 -23.4271  -9.2468  -9.2468  -8.7931  -8.7931  -8.7389  -8.7389
    -4.8648  -4.8648  -4.0048  -4.0048  -1.2782  -1.2782  -0.4875  -0.4875
     0.2973   0.2973   0.4285   0.4285   0.7962   0.7962   0.9519   0.9519

          k =-0.5004 0.0000 0.0000 ( 23356 PWs)   bands (ev):

   -23.4431 -23.4431  -8.9273  -8.9273  -8.8888  -8.8888  -8.6350  -8.6350
    -5.1533  -5.1533  -4.1764  -4.1764  -0.9102  -0.9102  -0.0559  -0.0559
     0.3268   0.3268   0.3584   0.3584   0.4397   0.4397   0.9042   0.9042

          k =-0.5004 0.0000 0.3606 ( 23338 PWs)   bands (ev):

   -23.4352 -23.4352  -9.0418  -9.0418  -8.8425  -8.8425  -8.7588  -8.7588
    -4.7268  -4.7268  -4.3670  -4.3670  -1.0554  -1.0554  -0.4350  -0.4350
     0.1918   0.1918   0.3965   0.3965   0.7974   0.7974   1.0371   1.0371

          k =-0.5004 0.0000-0.7211 ( 23428 PWs)   bands (ev):

   -23.4271 -23.4271  -9.2788  -9.2788  -8.7726  -8.7726  -8.7255  -8.7255
    -4.6775  -4.6775  -4.1791  -4.1791  -1.6569  -1.6569  -0.0750  -0.0750
     0.2281   0.2281   0.3968   0.3968   0.9348   0.9348   0.9421   0.9421

          k =-0.5004 0.2439 0.0000 ( 23384 PWs)   bands (ev):

   -23.4431 -23.4431  -9.0497  -9.0497  -8.7595  -8.7595  -8.6345  -8.6345
    -5.1290  -5.1290  -4.2390  -4.2390  -0.7896  -0.7896  -0.0613  -0.0613
     0.0889   0.0889   0.3092   0.3092   0.7038   0.7038   0.8832   0.8832

          k =-0.5004 0.2439 0.3606 ( 23378 PWs)   bands (ev):

   -23.4351 -23.4351  -9.0258  -9.0258  -8.9001  -8.9001  -8.7196  -8.7196
    -4.6829  -4.6829  -4.4163  -4.4163  -1.0610  -1.0610  -0.3980  -0.3980
     0.2257   0.2257   0.4425   0.4425   0.7918   0.7918   0.9606   0.9606

          k =-0.5004 0.2439-0.7211 ( 23364 PWs)   bands (ev):

   -23.4271 -23.4271  -9.2533  -9.2533  -8.7963  -8.7963  -8.7381  -8.7381
    -4.6854  -4.6854  -4.1598  -4.1598  -1.5412  -1.5412  -0.3044  -0.3044
     0.2705   0.2705   0.4818   0.4818   0.8590   0.8590   1.0110   1.0110

          k =-0.5004-0.4878 0.0000 ( 23424 PWs)   bands (ev):

   -23.4431 -23.4431  -9.1057  -9.1057  -8.6967  -8.6967  -8.6340  -8.6340
    -5.1019  -5.1019  -4.3029  -4.3029  -0.6183  -0.6183  -0.2235  -0.2235
    -0.0230  -0.0230   0.5031   0.5031   0.7181   0.7181   0.8425   0.8425

          k =-0.5004-0.4878 0.3606 ( 23368 PWs)   bands (ev):

   -23.4351 -23.4351  -8.9946  -8.9946  -8.9563  -8.9563  -8.6972  -8.6972
    -4.6136  -4.6136  -4.4905  -4.4905  -1.0500  -1.0500  -0.4322  -0.4322
     0.3845   0.3845   0.5360   0.5360   0.6864   0.6864   0.8645   0.8645

          k =-0.5004-0.4878-0.7211 ( 23392 PWs)   bands (ev):

   -23.4271 -23.4271  -9.2240  -9.2240  -8.8275  -8.8275  -8.7470  -8.7470
    -4.6938  -4.6938  -4.1396  -4.1396  -1.3666  -1.3666  -0.6244  -0.6244
     0.5151   0.5151   0.5683   0.5683   0.7141   0.7141   0.9698   0.9698

     highest occupied level (ev):     1.1358

!    total energy              =    -156.47363390 Ry
     estimated scf accuracy    <          1.7E-11 Ry

     The total energy is the sum of the following terms:
     one-electron contribution =     -19.10693591 Ry
     hartree contribution      =      24.55150441 Ry
     xc contribution           =     -49.22025295 Ry
     ewald contribution        =    -112.69794945 Ry

     convergence has been achieved in   7 iterations

     Forces acting on atoms (cartesian axes, Ry/au):

     atom    1 type  2   force =     0.00000000    0.00000000    0.00000442
     atom    2 type  2   force =     0.00000000    0.00000000   -0.00000442
     atom    3 type  1   force =    -0.00031458   -0.00051664   -0.00000793
     atom    4 type  1   force =     0.00031458    0.00051664   -0.00000793
     atom    5 type  1   force =    -0.00031458    0.00051664    0.00000793
     atom    6 type  1   force =     0.00031458   -0.00051664    0.00000793
     atom    7 type  3   force =    -0.00032696   -0.00029194   -0.00002252
     atom    8 type  3   force =     0.00032696    0.00029194   -0.00002252
     atom    9 type  3   force =    -0.00032696    0.00029194    0.00002252
     atom   10 type  3   force =     0.00032696   -0.00029194    0.00002252
     atom   11 type  3   force =     0.00002823   -0.00066262    0.00000421
     atom   12 type  3   force =    -0.00002823    0.00066262    0.00000421
     atom   13 type  3   force =     0.00002823    0.00066262   -0.00000421
     atom   14 type  3   force =    -0.00002823   -0.00066262   -0.00000421
     atom   15 type  3   force =    -0.00033104   -0.00032461    0.00021075
     atom   16 type  3   force =     0.00033104    0.00032461    0.00021075
     atom   17 type  3   force =    -0.00033104    0.00032461   -0.00021075
     atom   18 type  3   force =     0.00033104   -0.00032461   -0.00021075
     atom   19 type  3   force =     0.00037305    0.00031268   -0.00021341
     atom   20 type  3   force =    -0.00037305   -0.00031268   -0.00021341
     atom   21 type  3   force =     0.00037305   -0.00031268    0.00021341
     atom   22 type  3   force =    -0.00037305    0.00031268    0.00021341

     Total force =     0.002482     Total SCF correction =     0.000002


     Computing stress (Cartesian axis) and pressure

          total   stress  (Ry/bohr**3)                   (kbar)     P=        8.59
   0.00005524   0.00000000   0.00000000            8.13        0.00        0.00
   0.00000000   0.00005495   0.00000000            0.00        8.08        0.00
   0.00000000   0.00000000   0.00006500            0.00        0.00        9.56

     Volume is kept fixed: isostatic pressure set to zero
     Energy error            =      4.2E-05 Ry
     Gradient error          =      6.6E-04 Ry/Bohr
     Cell gradient error     =      9.7E-01 kbar

     number of scf cycles    =   4
     number of bfgs steps    =   3

     enthalpy           old  =    -156.4735915997 Ry
     enthalpy           new  =    -156.4736338975 Ry

     CASE: enthalpy          _new < enthalpy          _old

     new trust radius        =       0.0018502279 bohr
ibrav =      8
 celldm(1) =     12.48070921
 celldm(2) =      1.02568360
 celldm(3) =      0.69415341
Input lattice vectors:
     0.99911790     0.00000000     0.00000000
     0.00000000     1.02477885     0.00000000
     0.00000000     0.00000000     0.69354110
New lattice vectors in INITIAL alat:
     0.99911790     0.00000000     0.00000000
     0.00000000     1.02477885     0.00000000
     0.00000000     0.00000000     0.69354110
New lattice vectors in NEW alat (for information only):
     1.00000000     0.00000000     0.00000000
     0.00000000     1.02568360     0.00000000
     0.00000000     0.00000000     0.69415341
Discrepancy in bohr =     0.000000    0.000000    0.000000
     new conv_thr            =            4.2E-12 Ry

     new unit-cell volume =   1384.16118 a.u.^3 (   205.11153 Ang^3 )
     density =      2.70420 g/cm^3

CELL_PARAMETERS (alat= 12.49172812)
   0.999117904   0.000000000   0.000000000
   0.000000000   1.024778846   0.000000000
   0.000000000   0.000000000   0.693541098

ATOMIC_POSITIONS (crystal)
Ba               0.5000000000        0.5000000000        0.5001061412
Ba               0.0000000000        0.0000000000        0.9998938588
B                0.6101226974        0.2387949037        0.0000585594
B                0.3898773026        0.7612050963        0.0000585594
B                0.1101226974        0.2612050963        0.4999414406
B                0.8898773026        0.7387949037        0.4999414406
H                0.4322898361        0.2924990993        0.0002181316
H                0.5677101639        0.7075009007        0.0002181316
H                0.9322898361        0.2075009007        0.4997818684
H                0.0677101639        0.7924990993        0.4997818684
H                0.7232210558        0.3847338542       -0.0000053046
H                0.2767789442        0.6152661458       -0.0000053046
H                0.2232210558        0.1152661458        0.5000053046
H                0.7767789442        0.8847338542        0.5000053046
H                0.6393730716        0.1410443065        0.7783701240
H                0.3606269284        0.8589556935        0.7783701240
H                0.1393730716        0.3589556935        0.7216298760
H                0.8606269284        0.6410443065        0.7216298760
H                0.3604296203        0.8589987504        0.2216485450
H                0.6395703797        0.1410012496        0.2216485450
H                0.8604296203        0.6410012496        0.2783514550
H                0.1395703797        0.3589987504        0.2783514550



     Writing config-only to output data dir ./pwscf.save/ :
     XML data file
     NEW-OLD atomic charge density approx. for the potential

     total cpu time spent up to now is      525.0 secs

     Self-consistent Calculation

     iteration #  1     ecut=   100.00 Ry     beta= 0.70
     Davidson diagonalization with overlap
     ethr =  1.00E-06,  avg # of iterations =  1.5

     Threshold (ethr) on eigenvalues was too large:
     Diagonalizing with lowered threshold

     Davidson diagonalization with overlap
     ethr =  1.25E-09,  avg # of iterations =  4.3

     total cpu time spent up to now is      551.8 secs

     total energy              =    -156.47364351 Ry
     estimated scf accuracy    <       0.00000167 Ry

     iteration #  2     ecut=   100.00 Ry     beta= 0.70
     Davidson diagonalization with overlap
     ethr =  3.47E-09,  avg # of iterations =  2.0

     total cpu time spent up to now is      563.8 secs

     total energy              =    -156.47364389 Ry
     estimated scf accuracy    <       0.00000019 Ry

     iteration #  3     ecut=   100.00 Ry     beta= 0.70
     Davidson diagonalization with overlap
     ethr =  3.93E-10,  avg # of iterations =  2.0

     total cpu time spent up to now is      575.8 secs

     total energy              =    -156.47364391 Ry
     estimated scf accuracy    <          4.6E-09 Ry

     iteration #  4     ecut=   100.00 Ry     beta= 0.70
     Davidson diagonalization with overlap
     ethr =  9.67E-12,  avg # of iterations =  4.1

     total cpu time spent up to now is      590.1 secs

     total energy              =    -156.47364392 Ry
     estimated scf accuracy    <          8.4E-10 Ry

     iteration #  5     ecut=   100.00 Ry     beta= 0.70
     Davidson diagonalization with overlap
     ethr =  1.75E-12,  avg # of iterations =  3.7

     total cpu time spent up to now is      603.2 secs

     total energy              =    -156.47364392 Ry
     estimated scf accuracy    <          1.4E-11 Ry

     iteration #  6     ecut=   100.00 Ry     beta= 0.70
     Davidson diagonalization with overlap
     ethr =  1.00E-13,  avg # of iterations =  5.3

     total cpu time spent up to now is      620.9 secs

     End of self-consistent calculation

          k = 0.0000 0.0000 0.0000 ( 23401 PWs)   bands (ev):

   -23.4491 -23.4374  -9.0913  -8.9858  -8.7469  -8.7001  -8.6748  -8.5963
    -5.8527  -4.8292  -4.0269  -3.8887  -1.5720  -0.6106  -0.4955  -0.1539
     0.2360   0.2616   0.3250   0.4335   0.6063   1.0695   1.0783   1.1295

          k = 0.0000 0.0000 0.3605 ( 23378 PWs)   bands (ev):

   -23.4394 -23.4312  -8.9781  -8.9780  -8.9512  -8.9059  -8.7250  -8.6994
    -5.2814  -4.5235  -4.2358  -4.1533  -1.1547  -0.8799  -0.4260  -0.3570
    -0.1978  -0.0633   0.3358   0.6485   0.8375   0.8999   0.9787   1.1383

          k = 0.0000 0.0000-0.7209 ( 23340 PWs)   bands (ev):

   -23.4273 -23.4273  -9.2344  -9.2342  -8.8055  -8.8054  -8.7348  -8.7348
    -4.4980  -4.4976  -4.4350  -4.4344  -0.9195  -0.9189  -0.9065  -0.9050
     0.2230   0.2238   0.3495   0.3513   0.9549   0.9549   0.9644   0.9648

          k = 0.0000 0.2440 0.0000 ( 23353 PWs)   bands (ev):

   -23.4473 -23.4391  -9.0573  -8.9480  -8.8168  -8.7446  -8.6630  -8.6075
    -5.6248  -4.7228  -4.3590  -4.0393  -1.1658  -0.6970  -0.6877   0.1305
     0.1554   0.1904   0.4909   0.6221   0.7101   0.7158   0.9739   1.0483

          k = 0.0000 0.2440 0.3605 ( 23370 PWs)   bands (ev):

   -23.4382 -23.4324  -9.0350  -8.9893  -8.8867  -8.8705  -8.7374  -8.7273
    -5.1679  -4.6095  -4.2790  -4.1944  -0.9528  -0.9066  -0.7200  -0.0994
    -0.0475   0.1612   0.1693   0.7060   0.7725   0.8407   0.9385   1.0017

          k = 0.0000 0.2440-0.7209 ( 23400 PWs)   bands (ev):

   -23.4273 -23.4273  -9.2508  -9.2507  -8.7818  -8.7817  -8.7336  -8.7336
    -4.8416  -4.8416  -4.0763  -4.0762  -1.0574  -1.0567  -0.7057  -0.7048
     0.3147   0.3150   0.3830   0.3846   0.7562   0.7562   0.9620   0.9622

          k = 0.0000-0.4879 0.0000 ( 23352 PWs)   bands (ev):

   -23.4432 -23.4432  -8.9577  -8.9577  -8.8460  -8.8460  -8.6350  -8.6350
    -5.0639  -5.0639  -4.3691  -4.3691  -0.8304  -0.8304  -0.1809  -0.1809
     0.0629   0.0629   0.6290   0.6290   0.7547   0.7547   0.8886   0.8886

          k = 0.0000-0.4879 0.3605 ( 23358 PWs)   bands (ev):

   -23.4353 -23.4353  -9.0354  -9.0354  -8.8138  -8.8138  -8.7782  -8.7782
    -4.8871  -4.8871  -4.2652  -4.2652  -0.8946  -0.8946  -0.4634  -0.4634
     0.2230   0.2230   0.5180   0.5180   0.6888   0.6888   0.9109   0.9109

          k = 0.0000-0.4879-0.7209 ( 23372 PWs)   bands (ev):

   -23.4273 -23.4273  -9.2658  -9.2658  -8.7615  -8.7615  -8.7302  -8.7302
    -4.9938  -4.9938  -3.9091  -3.9091  -1.1572  -1.1572  -0.4267  -0.4267
     0.2274   0.2274   0.4531   0.4531   0.5487   0.5487   1.0006   1.0006

          k = 0.2502 0.0000 0.0000 ( 23392 PWs)   bands (ev):

   -23.4473 -23.4391  -9.0443  -8.9649  -8.8013  -8.7683  -8.6630  -8.6075
    -5.6335  -4.8470  -4.0803  -4.0699  -1.3650  -0.4455  -0.4115  -0.2936
     0.2825   0.3312   0.3887   0.4716   0.5633   0.6050   1.0293   1.0693

          k = 0.2502 0.0000 0.3605 ( 23387 PWs)   bands (ev):

   -23.4382 -23.4324  -9.0248  -9.0040  -8.9219  -8.8407  -8.7575  -8.7123
    -5.1148  -4.4950  -4.3004  -4.2775  -1.1289  -0.8631  -0.7281  -0.1411
    -0.1360   0.1704   0.4099   0.5516   0.7077   0.8383   1.0531   1.0813

          k = 0.2502 0.0000-0.7209 ( 23396 PWs)   bands (ev):

   -23.4273 -23.4273  -9.2570  -9.2568  -8.7876  -8.7875  -8.7308  -8.7308
    -4.6184  -4.6180  -4.2772  -4.2768  -1.4277  -1.4272  -0.4130  -0.4127
     0.2269   0.2273   0.6022   0.6036   0.7336   0.7338   0.9948   0.9952

          k = 0.2502 0.2440 0.0000 ( 23378 PWs)   bands (ev):

[...]
     0.99233792     0.00000000     0.00000000
     0.00000000     1.02674489     0.00000000
     0.00000000     0.00000000     0.69694251
New lattice vectors in INITIAL alat:
     0.99233792     0.00000000     0.00000000
     0.00000000     1.02674489     0.00000000
     0.00000000     0.00000000     0.69694251
New lattice vectors in NEW alat (for information only):
     1.00000000     0.00000000     0.00000000
     0.00000000     1.03467263     0.00000000
     0.00000000     0.00000000     0.70232378
Discrepancy in bohr =     0.000000    0.000000    0.000000
     new conv_thr            =            1.0E-12 Ry

     new unit-cell volume =   1384.16118 a.u.^3 (   205.11153 Ang^3 )
     density =      2.70420 g/cm^3

CELL_PARAMETERS (alat= 12.49172812)
   0.992337921   0.000000000   0.000000000
   0.000000000   1.026744889   0.000000000
   0.000000000   0.000000000   0.696942515

ATOMIC_POSITIONS (crystal)
Ba               0.5000000000        0.5000000000        0.5000034227
Ba               0.0000000000        0.0000000000        0.9999965773
B                0.6060033212        0.2364470882       -0.0000033556
B                0.3939966788        0.7635529118       -0.0000033556
B                0.1060033212        0.2635529118        0.5000033556
B                0.8939966788        0.7364470882        0.5000033556
H                0.4279236375        0.2931331875       -0.0000099368
H                0.5720763625        0.7068668125       -0.0000099368
H                0.9279236375        0.2068668125        0.5000099368
H                0.0720763625        0.7931331875        0.5000099368
H                0.7227403582        0.3799506070        0.0000206292
H                0.2772596418        0.6200493930        0.0000206292
H                0.2227403582        0.1200493930        0.4999793708
H                0.7772596418        0.8799506070        0.4999793708
H                0.6338278503        0.1380489686        0.7798228173
H                0.3661721497        0.8619510314        0.7798228173
H                0.1338278503        0.3619510314        0.7201771827
H                0.8661721497        0.6380489686        0.7201771827
H                0.3661916223        0.8619439417        0.2201783742
H                0.6338083777        0.1380560583        0.2201783742
H                0.8661916223        0.6380560583        0.2798216258
H                0.1338083777        0.3619439417        0.2798216258



     Writing config-only to output data dir ./pwscf.save/ :
     XML data file
     NEW-OLD atomic charge density approx. for the potential

     total cpu time spent up to now is     5926.5 secs

     Self-consistent Calculation

     iteration #  1     ecut=   100.00 Ry     beta= 0.70
     Davidson diagonalization with overlap
     ethr =  1.00E-06,  avg # of iterations =  1.0

     Threshold (ethr) on eigenvalues was too large:
     Diagonalizing with lowered threshold

     Davidson diagonalization with overlap
     ethr =  2.07E-13,  avg # of iterations =  4.0

     total cpu time spent up to now is     5953.3 secs

     total energy              =    -156.47401475 Ry
     estimated scf accuracy    <          9.1E-11 Ry

     iteration #  2     ecut=   100.00 Ry     beta= 0.70
     Davidson diagonalization with overlap
     ethr =  1.90E-13,  avg # of iterations =  2.0

     total cpu time spent up to now is     5965.3 secs

     total energy              =    -156.47401475 Ry
     estimated scf accuracy    <          1.4E-11 Ry

     iteration #  3     ecut=   100.00 Ry     beta= 0.70
     Davidson diagonalization with overlap
     ethr =  1.00E-13,  avg # of iterations =  1.0

     total cpu time spent up to now is     5974.6 secs

     End of self-consistent calculation

          k = 0.0000 0.0000 0.0000 ( 23401 PWs)   bands (ev):

   -23.4736 -23.4621  -9.0971  -8.9857  -8.7580  -8.7144  -8.6931  -8.6159
    -5.8429  -4.8206  -4.0279  -3.8614  -1.5519  -0.6090  -0.4940  -0.1588
     0.2720   0.3050   0.3405   0.5039   0.5952   1.0908   1.0993   1.1437

          k = 0.0000 0.0000 0.3587 ( 23378 PWs)   bands (ev):

   -23.4645 -23.4564  -8.9877  -8.9796  -8.9521  -8.9116  -8.7380  -8.7149
    -5.2923  -4.5363  -4.2236  -4.1229  -1.1510  -0.8405  -0.3545  -0.3413
    -0.2108  -0.0650   0.3348   0.6567   0.8486   0.9338   1.0202   1.1733

          k = 0.0000 0.0000-0.7174 ( 23340 PWs)   bands (ev):

   -23.4530 -23.4530  -9.2233  -9.2233  -8.8204  -8.8204  -8.7487  -8.7487
    -4.5274  -4.5274  -4.4040  -4.4040  -0.9140  -0.9139  -0.8397  -0.8397
     0.2179   0.2181   0.3473   0.3474   0.9787   0.9789   1.0060   1.0061

          k = 0.0000 0.2435 0.0000 ( 23353 PWs)   bands (ev):

   -23.4719 -23.4638  -9.0634  -8.9492  -8.8273  -8.7567  -8.6815  -8.6269
    -5.6151  -4.7048  -4.3671  -4.0195  -1.1378  -0.6854  -0.6846   0.1400
     0.1515   0.1923   0.5501   0.6765   0.7272   0.7333   0.9943   1.0691

          k = 0.0000 0.2435 0.3587 ( 23370 PWs)   bands (ev):

   -23.4633 -23.4575  -9.0391  -8.9912  -8.8939  -8.8770  -8.7496  -8.7415
    -5.1788  -4.6207  -4.2668  -4.1681  -0.9447  -0.8681  -0.6770  -0.0905
    -0.0195   0.1508   0.1767   0.7232   0.7784   0.8790   0.9655   1.0325

          k = 0.0000 0.2435-0.7174 ( 23400 PWs)   bands (ev):

   -23.4530 -23.4530  -9.2404  -9.2404  -8.7965  -8.7965  -8.7473  -8.7473
    -4.8437  -4.8437  -4.0739  -4.0738  -0.9860  -0.9860  -0.7015  -0.7014
     0.3031   0.3033   0.3848   0.3849   0.7740   0.7741   1.0034   1.0035

          k = 0.0000-0.4870 0.0000 ( 23352 PWs)   bands (ev):

   -23.4678 -23.4678  -8.9644  -8.9644  -8.8538  -8.8538  -8.6539  -8.6539
    -5.0514  -5.0514  -4.3645  -4.3645  -0.8017  -0.8017  -0.1769  -0.1769
     0.0588   0.0588   0.6486   0.6486   0.8043   0.8043   0.9158   0.9158

          k = 0.0000-0.4870 0.3587 ( 23358 PWs)   bands (ev):

   -23.4604 -23.4604  -9.0384  -9.0384  -8.8212  -8.8212  -8.7907  -8.7907
    -4.8977  -4.8977  -4.2475  -4.2475  -0.8533  -0.8533  -0.4558  -0.4558
     0.2552   0.2552   0.5010   0.5010   0.7223   0.7223   0.9332   0.9332

          k = 0.0000-0.4870-0.7174 ( 23372 PWs)   bands (ev):

   -23.4530 -23.4530  -9.2559  -9.2559  -8.7764  -8.7764  -8.7435  -8.7435
    -4.9944  -4.9944  -3.9090  -3.9090  -1.0814  -1.0814  -0.4158  -0.4158
     0.1964   0.1964   0.4540   0.4540   0.5845   0.5845   1.0269   1.0269

          k = 0.2519 0.0000 0.0000 ( 23392 PWs)   bands (ev):

   -23.4719 -23.4637  -9.0506  -8.9678  -8.8114  -8.7817  -8.6815  -8.6268
    -5.6214  -4.8371  -4.0774  -4.0448  -1.3500  -0.4324  -0.4122  -0.2806
     0.2794   0.3559   0.4193   0.5409   0.5852   0.6040   1.0507   1.0883

          k = 0.2519 0.0000 0.3587 ( 23387 PWs)   bands (ev):

   -23.4633 -23.4575  -9.0276  -9.0084  -8.9295  -8.8476  -8.7701  -8.7269
    -5.1206  -4.5063  -4.2707  -4.2652  -1.1190  -0.8446  -0.6905  -0.1461
    -0.1361   0.1883   0.4428   0.5857   0.7215   0.8498   1.0905   1.1186

          k = 0.2519 0.0000-0.7174 ( 23396 PWs)   bands (ev):

   -23.4530 -23.4530  -9.2470  -9.2470  -8.8027  -8.8027  -8.7450  -8.7450
    -4.5971  -4.5971  -4.2945  -4.2945  -1.4008  -1.4008  -0.3864  -0.3863
     0.2135   0.2136   0.6224   0.6225   0.7778   0.7780   1.0245   1.0247

          k = 0.2519 0.2435 0.0000 ( 23378 PWs)   bands (ev):

   -23.4707 -23.4649  -9.0852  -8.9416  -8.8772  -8.7209  -8.6731  -8.6344
    -5.4626  -4.7741  -4.3732  -4.0878  -1.0169  -0.6592  -0.4445   0.0337
     0.0930   0.1440   0.5173   0.6759   0.7054   0.7688   0.8035   0.9934

          k = 0.2519 0.2435 0.3587 ( 23373 PWs)   bands (ev):

   -23.4624 -23.4583  -9.0320  -8.9806  -8.9790  -8.8213  -8.7859  -8.7179
    -5.0250  -4.5540  -4.3626  -4.2589  -1.0761  -0.8073  -0.6954  -0.1099
     0.0482   0.2446   0.3415   0.5781   0.7168   0.8224   0.9924   1.0865

          k = 0.2519 0.2435-0.7174 ( 23364 PWs)   bands (ev):

   -23.4530 -23.4530  -9.2552  -9.2255  -8.8320  -8.7787  -8.7553  -8.7448
    -4.8469  -4.6411  -4.2393  -4.0277  -1.3599  -1.2876  -0.4363  -0.3355
     0.1481   0.1656   0.5751   0.6411   0.7858   0.8244   0.9538   1.0095

          k = 0.2519-0.4870 0.0000 ( 23346 PWs)   bands (ev):

   -23.4678 -23.4678  -9.0568  -9.0568  -8.7626  -8.7626  -8.6533  -8.6533
    -5.0534  -5.0534  -4.3471  -4.3471  -0.6926  -0.6926  -0.1776  -0.1776
     0.0151   0.0151   0.5591   0.5591   0.8347   0.8347   0.8468   0.8468

          k = 0.2519-0.4870 0.3587 ( 23352 PWs)   bands (ev):

   -23.4604 -23.4604  -9.0258  -9.0258  -8.9017  -8.9017  -8.7342  -8.7342
    -4.7885  -4.7885  -4.3297  -4.3297  -0.9705  -0.9705  -0.3284  -0.3284
     0.2011   0.2011   0.5410   0.5410   0.7023   0.7023   0.9645   0.9645

          k = 0.2519-0.4870-0.7174 ( 23412 PWs)   bands (ev):

   -23.4529 -23.4529  -9.2352  -9.2352  -8.8091  -8.8091  -8.7527  -8.7527
    -4.8623  -4.8623  -4.0008  -4.0008  -1.2359  -1.2359  -0.4448  -0.4448
     0.2869   0.2869   0.4247   0.4247   0.8193   0.8193   0.9808   0.9808

          k =-0.5039 0.0000 0.0000 ( 23356 PWs)   bands (ev):

   -23.4678 -23.4678  -8.9344  -8.9344  -8.8982  -8.8982  -8.6538  -8.6538
    -5.1377  -5.1377  -4.1618  -4.1618  -0.8944  -0.8944  -0.0517  -0.0517
     0.3185   0.3185   0.3884   0.3884   0.4832   0.4832   0.9334   0.9334

          k =-0.5039 0.0000 0.3587 ( 23338 PWs)   bands (ev):

   -23.4604 -23.4604  -9.0452  -9.0452  -8.8519  -8.8519  -8.7707  -8.7707
    -4.7240  -4.7240  -4.3517  -4.3517  -1.0412  -1.0412  -0.4232  -0.4232
     0.1989   0.1989   0.4203   0.4203   0.8308   0.8308   1.0765   1.0765

          k =-0.5039 0.0000-0.7174 ( 23428 PWs)   bands (ev):

   -23.4529 -23.4529  -9.2688  -9.2688  -8.7879  -8.7879  -8.7401  -8.7401
    -4.6398  -4.6398  -4.2080  -4.2080  -1.6367  -1.6367  -0.0512  -0.0512
     0.2092   0.2092   0.4290   0.4290   0.9762   0.9762   0.9880   0.9880

          k =-0.5039 0.2435 0.0000 ( 23384 PWs)   bands (ev):

   -23.4677 -23.4677  -9.0555  -9.0555  -8.7710  -8.7710  -8.6533  -8.6533
    -5.1013  -5.1013  -4.2412  -4.2412  -0.7584  -0.7584  -0.0345  -0.0345
     0.0899   0.0899   0.3151   0.3151   0.7410   0.7410   0.8989   0.8989

          k =-0.5039 0.2435 0.3587 ( 23378 PWs)   bands (ev):

   -23.4603 -23.4603  -9.0304  -9.0304  -8.9064  -8.9064  -8.7334  -8.7334
    -4.6755  -4.6755  -4.4075  -4.4075  -1.0440  -1.0440  -0.3653  -0.3653
     0.2135   0.2135   0.4839   0.4839   0.8052   0.8052   0.9939   0.9939

          k =-0.5039 0.2435-0.7174 ( 23364 PWs)   bands (ev):

   -23.4529 -23.4529  -9.2423  -9.2423  -8.8122  -8.8122  -8.7527  -8.7527
    -4.6664  -4.6664  -4.1687  -4.1687  -1.5186  -1.5186  -0.2663  -0.2663
     0.2492   0.2492   0.5151   0.5151   0.8982   0.8982   1.0316   1.0316

          k =-0.5039-0.4870 0.0000 ( 23424 PWs)   bands (ev):

   -23.4677 -23.4677  -9.1108  -9.1108  -8.7096  -8.7096  -8.6528  -8.6528
    -5.0587  -5.0587  -4.3250  -4.3250  -0.5575  -0.5575  -0.2068  -0.2068
    -0.0245  -0.0245   0.5263   0.5263   0.6969   0.6969   0.8852   0.8852

          k =-0.5039-0.4870 0.3587 ( 23368 PWs)   bands (ev):

   -23.4603 -23.4603  -9.0041  -9.0041  -8.9567  -8.9567  -8.7120  -8.7120
    -4.5895  -4.5895  -4.5003  -4.5003  -1.0279  -1.0279  -0.3963  -0.3963
     0.4296   0.4296   0.5108   0.5108   0.7319   0.7319   0.8621   0.8621

          k =-0.5039-0.4870-0.7174 ( 23392 PWs)   bands (ev):

   -23.4529 -23.4529  -9.2114  -9.2114  -8.8446  -8.8446  -8.7615  -8.7615
    -4.6902  -4.6902  -4.1316  -4.1316  -1.3417  -1.3417  -0.5858  -0.5858
     0.5327   0.5327   0.5609   0.5609   0.7533   0.7533   0.9772   0.9772

     highest occupied level (ev):     1.1733

!    total energy              =    -156.47401475 Ry
     estimated scf accuracy    <          3.4E-13 Ry

     The total energy is the sum of the following terms:
     one-electron contribution =     -18.47454163 Ry
     hartree contribution      =      24.23616986 Ry
     xc contribution           =     -49.20121129 Ry
     ewald contribution        =    -113.03443169 Ry

     convergence has been achieved in   3 iterations

     Forces acting on atoms (cartesian axes, Ry/au):

     atom    1 type  2   force =     0.00000000    0.00000000   -0.00000779
     atom    2 type  2   force =     0.00000000    0.00000000    0.00000779
     atom    3 type  1   force =    -0.00000006    0.00000019    0.00000738
     atom    4 type  1   force =     0.00000006   -0.00000019    0.00000738
     atom    5 type  1   force =    -0.00000006   -0.00000019   -0.00000738
     atom    6 type  1   force =     0.00000006    0.00000019   -0.00000738
     atom    7 type  3   force =     0.00000226   -0.00000028   -0.00000253
     atom    8 type  3   force =    -0.00000226    0.00000028   -0.00000253
     atom    9 type  3   force =     0.00000226    0.00000028    0.00000253
     atom   10 type  3   force =    -0.00000226   -0.00000028    0.00000253
     atom   11 type  3   force =    -0.00000074   -0.00000258   -0.00001070
     atom   12 type  3   force =     0.00000074    0.00000258   -0.00001070
     atom   13 type  3   force =    -0.00000074    0.00000258    0.00001070
     atom   14 type  3   force =     0.00000074   -0.00000258    0.00001070
     atom   15 type  3   force =    -0.00000254    0.00000946    0.00000576
     atom   16 type  3   force =     0.00000254   -0.00000946    0.00000576
     atom   17 type  3   force =    -0.00000254   -0.00000946   -0.00000576
     atom   18 type  3   force =     0.00000254    0.00000946   -0.00000576
     atom   19 type  3   force =    -0.00000266    0.00000726    0.00000229
     atom   20 type  3   force =     0.00000266   -0.00000726    0.00000229
     atom   21 type  3   force =    -0.00000266   -0.00000726   -0.00000229
     atom   22 type  3   force =     0.00000266    0.00000726   -0.00000229

     Total force =     0.000041     Total SCF correction =     0.000000


     Computing stress (Cartesian axis) and pressure

          total   stress  (Ry/bohr**3)                   (kbar)     P=        5.99
   0.00004073   0.00000000   0.00000000            5.99        0.00        0.00
   0.00000000   0.00004072   0.00000000            0.00        5.99        0.00
   0.00000000   0.00000000   0.00004072            0.00        0.00        5.99

     Volume is kept fixed: isostatic pressure set to zero
     Message from routine bfgs:
     history already reset at previous step: exiting
     Energy error            =      2.2E-09 Ry
     Gradient error          =      1.1E-05 Ry/Bohr
     Cell gradient error     =      1.1E-03 kbar
ibrav =      8
 celldm(1) =     12.39601550
 celldm(2) =      1.03467263
 celldm(3) =      0.70232378
Input lattice vectors:
     0.99233792     0.00000000     0.00000000
     0.00000000     1.02674489     0.00000000
     0.00000000     0.00000000     0.69694251
New lattice vectors in INITIAL alat:
     0.99233792     0.00000000     0.00000000
     0.00000000     1.02674489     0.00000000
     0.00000000     0.00000000     0.69694251
New lattice vectors in NEW alat (for information only):
     1.00000000     0.00000000     0.00000000
     0.00000000     1.03467263     0.00000000
     0.00000000     0.00000000     0.70232378
Discrepancy in bohr =     0.000000    0.000000    0.000000

     bfgs failed after  55 scf cycles and  54 bfgs steps, convergence not achieved
     (criteria: energy <  1.0E-05 Ry, force <  1.0E-05 Ry/Bohr, cell <  5.0E-01 kbar)

     End of BFGS Geometry Optimization

     Final enthalpy           =    -156.4740147476 Ry

     File ./pwscf.bfgs deleted, as requested
Begin final coordinates
     new unit-cell volume =   1384.16118 a.u.^3 (   205.11153 Ang^3 )
     density =      2.70420 g/cm^3

CELL_PARAMETERS (alat= 12.49172812)
   0.992337921   0.000000000   0.000000000
   0.000000000   1.026744889   0.000000000
   0.000000000   0.000000000   0.696942515

ATOMIC_POSITIONS (crystal)
Ba               0.5000000000        0.5000000000        0.5000034227
Ba               0.0000000000        0.0000000000        0.9999965773
B                0.6060033212        0.2364470882       -0.0000033556
B                0.3939966788        0.7635529118       -0.0000033556
B                0.1060033212        0.2635529118        0.5000033556
B                0.8939966788        0.7364470882        0.5000033556
H                0.4279236375        0.2931331875       -0.0000099368
H                0.5720763625        0.7068668125       -0.0000099368
H                0.9279236375        0.2068668125        0.5000099368
H                0.0720763625        0.7931331875        0.5000099368
H                0.7227403582        0.3799506070        0.0000206292
H                0.2772596418        0.6200493930        0.0000206292
H                0.2227403582        0.1200493930        0.4999793708
H                0.7772596418        0.8799506070        0.4999793708
H                0.6338278503        0.1380489686        0.7798228173
H                0.3661721497        0.8619510314        0.7798228173
H                0.1338278503        0.3619510314        0.7201771827
H                0.8661721497        0.6380489686        0.7201771827
H                0.3661916223        0.8619439417        0.2201783742
H                0.6338083777        0.1380560583        0.2201783742
H                0.8661916223        0.6380560583        0.2798216258
H                0.1338083777        0.3619439417        0.2798216258
End final coordinates



     Writing config-only to output data dir ./pwscf.save/ :
     XML data file

     Writing all to output data dir ./pwscf.save/ :
     XML data file, charge density, pseudopotentials, collected wavefunctions

     init_run     :      7.85s CPU     10.53s WALL (       1 calls)
     electrons    :   5263.01s CPU   5308.02s WALL (      55 calls)
     update_pot   :      9.09s CPU     10.25s WALL (      54 calls)
     forces       :    189.70s CPU    191.74s WALL (      55 calls)
     stress       :    452.26s CPU    454.12s WALL (      55 calls)

     Called by init_run:
     wfcinit      :      6.28s CPU      6.37s WALL (       1 calls)
     potinit      :      0.42s CPU      1.47s WALL (       1 calls)
     hinit0       :      0.73s CPU      2.15s WALL (       1 calls)

     Called by electrons:
     c_bands      :   4535.85s CPU   4567.78s WALL (     395 calls)
     sum_band     :    643.40s CPU    651.05s WALL (     395 calls)
     v_of_rho     :     39.73s CPU     42.11s WALL (     401 calls)
     newd         :     44.66s CPU     45.75s WALL (     401 calls)
     mix_rho      :      4.79s CPU      5.26s WALL (     395 calls)

     Called by c_bands:
     init_us_2    :    110.31s CPU    111.96s WALL (   24327 calls)
     cegterg      :   4366.11s CPU   4396.36s WALL (   10665 calls)

     Called by *egterg:
     cdiaghg      :     64.81s CPU     65.21s WALL (   40491 calls)
     h_psi        :   2991.48s CPU   3017.22s WALL (   43299 calls)
     s_psi        :    738.15s CPU    739.80s WALL (   43299 calls)
     g_psi        :      8.89s CPU      8.97s WALL (   32607 calls)

     Called by h_psi:
     h_psi:calbec :    770.39s CPU    772.76s WALL (   43299 calls)
     vloc_psi     :   1468.97s CPU   1490.90s WALL (   43299 calls)
     add_vuspsi   :    743.01s CPU    744.84s WALL (   43299 calls)

     General routines
     calbec       :   1244.33s CPU   1247.94s WALL (   61389 calls)
     fft          :     28.71s CPU     34.22s WALL (    6581 calls)
     ffts         :      1.61s CPU      2.79s WALL (     796 calls)
     fftw         :   1346.61s CPU   1365.67s WALL ( 1802330 calls)
     interpolate  :      2.95s CPU      4.36s WALL (     401 calls)
     davcio       :      0.01s CPU      0.05s WALL (      27 calls)

     Parallel routines

     PWSCF        :      1h38m CPU      1h39m WALL


   This run was terminated on:  15:53:54  12Jul2024            

=------------------------------------------------------------------------------=
   JOB DONE.
=------------------------------------------------------------------------------=
