
     Program PWSCF v.7.3.1 starts on 11Jul2024 at 15:30:39 

     This program is part of the open-source Quantum ESPRESSO suite
     for quantum simulation of materials; please cite
         "P. Giannozzi et al., J. Phys.:Condens. Matter 21 395502 (2009);
         "P. Giannozzi et al., J. Phys.:Condens. Matter 29 465901 (2017);
         "P. Giannozzi et al., J. Chem. Phys. 152 154105 (2020);
          URL http://www.quantum-espresso.org", 
     in publications or presentations arising from this work. More details at
     http://www.quantum-espresso.org/quote

     Parallel version (MPI), running on    24 processors

     MPI processes distributed on     1 nodes
     94455 MiB available memory on the printing compute node when the environment starts

     Waiting for input...
     Reading input from standard input

     Current dimensions of program PWSCF are:
     Max number of different atomic species (ntypx) = 10
     Max number of k-points (npk) =  40000
     Max angular momentum in pseudopotentials (lmaxx) =  4

     R & G space division:  proc/nbgrp/npool/nimage =      24
     Subspace diagonalization in iterative solution of the eigenvalue problem:
     a serial algorithm will be used


     Parallelization info
     --------------------
     sticks:   dense  smooth     PW     G-vecs:    dense   smooth      PW
     Min         423     211     58                21921     7751    1124
     Max         424     212     60                21923     7754    1126
     Sum       10163    5075   1395               526119   186041   26983

     Using Slab Decomposition


     Title: 
     volume variation                                                           


     bravais-lattice index     =            8
     lattice parameter (alat)  =      12.4702  a.u.
     unit-cell volume          =    1377.0263 (a.u.)^3
     number of atoms/cell      =           22
     number of atomic types    =            3
     number of electrons       =        48.00
     number of Kohn-Sham states=           24
     kinetic-energy cutoff     =     100.0000  Ry
     charge density cutoff     =     800.0000  Ry
     scf convergence threshold =      1.0E-10
     mixing beta               =       0.7000
     number of iterations used =            8  plain     mixing
     energy convergence thresh.=      1.0E-05
     force convergence thresh. =      1.0E-05
     press convergence thresh. =      5.0E-01
     Exchange-correlation= PBESOL
                           (   1   4  10   8   0   0   0)
     nstep                     =          100


     celldm(1)=  12.470228  celldm(2)=   1.025571  celldm(3)=   0.692394
     celldm(4)=   0.000000  celldm(5)=   0.000000  celldm(6)=   0.000000

     crystal axes: (cart. coord. in units of alat)
               a(1) = (   1.000000   0.000000   0.000000 )  
               a(2) = (   0.000000   1.025571   0.000000 )  
               a(3) = (   0.000000   0.000000   0.692394 )  

     reciprocal axes: (cart. coord. in units 2 pi/alat)
               b(1) = (  1.000000  0.000000  0.000000 )  
               b(2) = (  0.000000  0.975067  0.000000 )  
               b(3) = (  0.000000  0.000000  1.444264 )  


     PseudoPot. # 1 for B  read from file:
     /home/mehlhorn/pseudos/b_pbesol_v1.4.uspp.F.UPF
     MD5 check sum: 369b69bef2c3aeed4453bd8b804fd6a8
     Pseudo is Ultrasoft + core correction, Zval =  3.0
     Generated by new atomic code, or converted to UPF format
     Using radial grid of  781 points,  4 beta functions with: 
                l(1) =   0
                l(2) =   0
                l(3) =   1
                l(4) =   1
     Q(r) pseudized with  8 coefficients,  rinner =    1.100   1.100   1.100


     PseudoPot. # 2 for Ba read from file:
     /home/mehlhorn/pseudos/Ba.nc.z_10.oncvpsp4.dojo.v4-sp.upf
     MD5 check sum: c10ed334bb677c0554edec7181ce9143
     Pseudo is Norm-conserving + core correction, Zval = 10.0
     Generated using ONCVPSP code by D. R. Hamann
     Using radial grid of 1938 points,  8 beta functions with: 
                l(1) =   0
                l(2) =   0
                l(3) =   1
                l(4) =   1
                l(5) =   2
                l(6) =   2
                l(7) =   3
                l(8) =   3

     PseudoPot. # 3 for H  read from file:
     /home/mehlhorn/pseudos/H_ONCV_PBEsol-1.0.upf
     MD5 check sum: 398ef8f67c0a7342c05c87c5e19ea467
     Pseudo is Norm-conserving, Zval =  1.0
     Generated using ONCVPSP code by D. R. Hamann
     Using radial grid of 1180 points,  2 beta functions with: 
                l(1) =   0
                l(2) =   0

     atomic species   valence    mass     pseudopotential
     B                 3.00    10.81100     B ( 1.00)
     Ba               10.00   137.32700     Ba( 1.00)
     H                 1.00     1.00794     H ( 1.00)

      4 Sym. Ops. (no inversion) found ( 2 have fractional translation)



   Cartesian axes

     site n.     atom                  positions (alat units)
         1        Ba     tau(   1) = (   0.5000000   0.5127855   0.3462657  )
         2        Ba     tau(   2) = (   0.0000000   0.0000000   0.6923255  )
         3        B      tau(   3) = (   0.6102570   0.2453190   0.0000455  )
         4        B      tau(   4) = (   0.3897430   0.7802519   0.0000455  )
         5        B      tau(   5) = (   0.1102570   0.2674665   0.3461516  )
         6        B      tau(   6) = (   0.8897430   0.7581045   0.3461516  )
         7        H      tau(   7) = (   0.4340973   0.2996264   0.0001599  )
         8        H      tau(   8) = (   0.5659027   0.7259445   0.0001599  )
         9        H      tau(   9) = (   0.9340973   0.2131590   0.3460372  )
        10        H      tau(  10) = (   0.0659027   0.8124119   0.3460372  )
        11        H      tau(  11) = (   0.7220603   0.3933629  -0.0000058  )
        12        H      tau(  12) = (   0.2779397   0.6322081  -0.0000058  )
        13        H      tau(  13) = (   0.2220603   0.1194226   0.3462029  )
        14        H      tau(  14) = (   0.7779397   0.9061483   0.3462029  )
        15        H      tau(  15) = (   0.6392499   0.1457279   0.5404125  )
        16        H      tau(  16) = (   0.3607501   0.8798430   0.5404125  )
        17        H      tau(  17) = (   0.1392499   0.3670576   0.4981787  )
        18        H      tau(  18) = (   0.8607501   0.6585133   0.4981787  )
        19        H      tau(  19) = (   0.3605328   0.8798946   0.1519977  )
        20        H      tau(  20) = (   0.6394672   0.1456763   0.1519977  )
        21        H      tau(  21) = (   0.8605328   0.6584617   0.1941994  )
        22        H      tau(  22) = (   0.1394672   0.3671092   0.1941994  )

     number of k points=    27
                       cart. coord. in units 2pi/alat
        k(    1) = (   0.0000000   0.0000000   0.0000000), wk =   0.0312500
        k(    2) = (   0.0000000   0.0000000   0.3610660), wk =   0.0625000
        k(    3) = (   0.0000000   0.0000000  -0.7221320), wk =   0.0312500
        k(    4) = (   0.0000000   0.2437667   0.0000000), wk =   0.0625000
        k(    5) = (   0.0000000   0.2437667   0.3610660), wk =   0.1250000
        k(    6) = (   0.0000000   0.2437667  -0.7221320), wk =   0.0625000
        k(    7) = (   0.0000000  -0.4875333   0.0000000), wk =   0.0312500
        k(    8) = (   0.0000000  -0.4875333   0.3610660), wk =   0.0625000
        k(    9) = (   0.0000000  -0.4875333  -0.7221320), wk =   0.0312500
        k(   10) = (   0.2500000   0.0000000   0.0000000), wk =   0.0625000
        k(   11) = (   0.2500000   0.0000000   0.3610660), wk =   0.1250000
        k(   12) = (   0.2500000   0.0000000  -0.7221320), wk =   0.0625000
        k(   13) = (   0.2500000   0.2437667   0.0000000), wk =   0.1250000
        k(   14) = (   0.2500000   0.2437667   0.3610660), wk =   0.2500000
        k(   15) = (   0.2500000   0.2437667  -0.7221320), wk =   0.1250000
        k(   16) = (   0.2500000  -0.4875333   0.0000000), wk =   0.0625000
        k(   17) = (   0.2500000  -0.4875333   0.3610660), wk =   0.1250000
        k(   18) = (   0.2500000  -0.4875333  -0.7221320), wk =   0.0625000
        k(   19) = (  -0.5000000   0.0000000   0.0000000), wk =   0.0312500
        k(   20) = (  -0.5000000   0.0000000   0.3610660), wk =   0.0625000
        k(   21) = (  -0.5000000   0.0000000  -0.7221320), wk =   0.0312500
        k(   22) = (  -0.5000000   0.2437667   0.0000000), wk =   0.0625000
        k(   23) = (  -0.5000000   0.2437667   0.3610660), wk =   0.1250000
        k(   24) = (  -0.5000000   0.2437667  -0.7221320), wk =   0.0625000
        k(   25) = (  -0.5000000  -0.4875333   0.0000000), wk =   0.0312500
        k(   26) = (  -0.5000000  -0.4875333   0.3610660), wk =   0.0625000
        k(   27) = (  -0.5000000  -0.4875333  -0.7221320), wk =   0.0312500

     Dense  grid:   526119 G-vectors     FFT dimensions: ( 120, 120,  80)

     Smooth grid:   186041 G-vectors     FFT dimensions: (  80,  90,  60)

     Estimated max dynamical RAM per process >      88.89 MB

     Estimated total dynamical RAM >       2.08 GB

     Initial potential from superposition of free atoms

     starting charge      47.9682, renormalised to      48.0000
     Starting wfcs are   42 randomized atomic wfcs

     total cpu time spent up to now is       12.0 secs

     Self-consistent Calculation

     iteration #  1     ecut=   100.00 Ry     beta= 0.70
     Davidson diagonalization with overlap
     ethr =  1.00E-02,  avg # of iterations =  2.0

     total cpu time spent up to now is       27.0 secs

     total energy              =    -155.90189644 Ry
     estimated scf accuracy    <       2.17011427 Ry

     iteration #  2     ecut=   100.00 Ry     beta= 0.70
     Davidson diagonalization with overlap
     ethr =  4.52E-03,  avg # of iterations =  2.0

     total cpu time spent up to now is       41.4 secs

     total energy              =    -156.40487511 Ry
     estimated scf accuracy    <       0.37445931 Ry

     iteration #  3     ecut=   100.00 Ry     beta= 0.70
     Davidson diagonalization with overlap
     ethr =  7.80E-04,  avg # of iterations =  2.0

     total cpu time spent up to now is       55.8 secs

     total energy              =    -156.46712087 Ry
     estimated scf accuracy    <       0.00500689 Ry

     iteration #  4     ecut=   100.00 Ry     beta= 0.70
     Davidson diagonalization with overlap
     ethr =  1.04E-05,  avg # of iterations =  5.1

     total cpu time spent up to now is       76.6 secs

     total energy              =    -156.47037688 Ry
     estimated scf accuracy    <       0.00164115 Ry

     iteration #  5     ecut=   100.00 Ry     beta= 0.70
     Davidson diagonalization with overlap
     ethr =  3.42E-06,  avg # of iterations =  3.1

     total cpu time spent up to now is       91.6 secs

     total energy              =    -156.47094706 Ry
     estimated scf accuracy    <       0.00015980 Ry

     iteration #  6     ecut=   100.00 Ry     beta= 0.70
     Davidson diagonalization with overlap
     ethr =  3.33E-07,  avg # of iterations =  4.1

     total cpu time spent up to now is      108.1 secs

     total energy              =    -156.47100867 Ry
     estimated scf accuracy    <       0.00000108 Ry

     iteration #  7     ecut=   100.00 Ry     beta= 0.70
     Davidson diagonalization with overlap
     ethr =  2.25E-09,  avg # of iterations =  8.9

     total cpu time spent up to now is      141.4 secs

     total energy              =    -156.47101706 Ry
     estimated scf accuracy    <       0.00000099 Ry

     iteration #  8     ecut=   100.00 Ry     beta= 0.70
     Davidson diagonalization with overlap
     ethr =  2.06E-09,  avg # of iterations =  2.0

     total cpu time spent up to now is      155.8 secs

     total energy              =    -156.47101731 Ry
     estimated scf accuracy    <       0.00000005 Ry

     iteration #  9     ecut=   100.00 Ry     beta= 0.70
     Davidson diagonalization with overlap
     ethr =  9.92E-11,  avg # of iterations =  5.1

     total cpu time spent up to now is      173.4 secs

     total energy              =    -156.47101733 Ry
     estimated scf accuracy    <          3.8E-09 Ry

     iteration # 10     ecut=   100.00 Ry     beta= 0.70
     Davidson diagonalization with overlap
     ethr =  7.82E-12,  avg # of iterations =  4.8

     total cpu time spent up to now is      191.5 secs

     total energy              =    -156.47101733 Ry
     estimated scf accuracy    <          1.4E-09 Ry

     iteration # 11     ecut=   100.00 Ry     beta= 0.70
     Davidson diagonalization with overlap
     ethr =  2.93E-12,  avg # of iterations =  2.5

     total cpu time spent up to now is      206.1 secs

     End of self-consistent calculation

          k = 0.0000 0.0000 0.0000 ( 23289 PWs)   bands (ev):

   -23.4163 -23.4044  -9.0743  -8.9637  -8.7190  -8.6696  -8.6436  -8.5641
    -5.8779  -4.8773  -4.0542  -3.9234  -1.5548  -0.6186  -0.4800  -0.1757
     0.2319   0.2703   0.3399   0.4316   0.6137   1.0519   1.0581   1.1025

          k = 0.0000 0.0000 0.3611 ( 23257 PWs)   bands (ev):

   -23.4062 -23.3978  -8.9589  -8.9568  -8.9328  -8.8808  -8.6957  -8.6685
    -5.2975  -4.5597  -4.2725  -4.1964  -1.1266  -0.8612  -0.4091  -0.3640
    -0.1945  -0.0588   0.3306   0.6375   0.8202   0.8810   0.9716   1.1192

          k = 0.0000 0.0000-0.7221 ( 23256 PWs)   bands (ev):

   -23.3936 -23.3936  -9.2242  -9.2240  -8.7770  -8.7769  -8.7049  -8.7049
    -4.5179  -4.5175  -4.4835  -4.4830  -0.8942  -0.8937  -0.8852  -0.8835
     0.2100   0.2109   0.3477   0.3494   0.9351   0.9355   0.9545   0.9546

          k = 0.0000 0.2438 0.0000 ( 23221 PWs)   bands (ev):

   -23.4145 -23.4061  -9.0394  -8.9253  -8.7910  -8.7154  -8.6317  -8.5754
    -5.6486  -4.7699  -4.3811  -4.0757  -1.1543  -0.6882  -0.6838   0.1312
     0.1632   0.1700   0.4872   0.6258   0.6969   0.7138   0.9557   1.0285

          k = 0.0000 0.2438 0.3611 ( 23231 PWs)   bands (ev):

   -23.4049 -23.3990  -9.0162  -8.9708  -8.8643  -8.8449  -8.7090  -8.6970
    -5.1871  -4.6455  -4.3113  -4.2346  -0.9298  -0.8870  -0.7085  -0.0906
    -0.0476   0.1479   0.1693   0.6953   0.7578   0.8236   0.9273   0.9861

          k = 0.0000 0.2438-0.7221 ( 23278 PWs)   bands (ev):

   -23.3936 -23.3936  -9.2406  -9.2404  -8.7525  -8.7525  -8.7038  -8.7038
    -4.8823  -4.8822  -4.1028  -4.1028  -1.0384  -1.0377  -0.6799  -0.6791
     0.3035   0.3037   0.3767   0.3783   0.7453   0.7454   0.9451   0.9454

          k = 0.0000-0.4875 0.0000 ( 23188 PWs)   bands (ev):

   -23.4103 -23.4103  -8.9376  -8.9376  -8.8193  -8.8193  -8.6033  -8.6033
    -5.0879  -5.0879  -4.4078  -4.4078  -0.8169  -0.8169  -0.1879  -0.1879
     0.0678   0.0678   0.6069   0.6069   0.7575   0.7575   0.8742   0.8742

          k = 0.0000-0.4875 0.3611 ( 23256 PWs)   bands (ev):

   -23.4019 -23.4019  -9.0171  -9.0171  -8.7890  -8.7890  -8.7492  -8.7492
    -4.9146  -4.9146  -4.2996  -4.2996  -0.8749  -0.8749  -0.4554  -0.4554
     0.2190   0.2190   0.5159   0.5159   0.6676   0.6676   0.8978   0.8978

          k = 0.0000-0.4875-0.7221 ( 23240 PWs)   bands (ev):

   -23.3936 -23.3936  -9.2555  -9.2555  -8.7314  -8.7314  -8.7006  -8.7006
    -5.0376  -5.0376  -3.9311  -3.9311  -1.1389  -1.1389  -0.3970  -0.3970
     0.2109   0.2109   0.4487   0.4487   0.5350   0.5350   0.9837   0.9837

          k = 0.2500 0.0000 0.0000 ( 23246 PWs)   bands (ev):

   -23.4145 -23.4061  -9.0261  -8.9421  -8.7754  -8.7400  -8.6317  -8.5754
    -5.6582  -4.8887  -4.1104  -4.1038  -1.3490  -0.4451  -0.4008  -0.3037
     0.2850   0.3388   0.3929   0.4597   0.5653   0.5931   1.0089   1.0418

          k = 0.2500 0.0000 0.3611 ( 23262 PWs)   bands (ev):

   -23.4049 -23.3990  -9.0059  -8.9856  -8.8996  -8.8152  -8.7290  -8.6822
    -5.1325  -4.5282  -4.3408  -4.3152  -1.0994  -0.8510  -0.7064  -0.1437
    -0.1387   0.1713   0.3981   0.5399   0.6991   0.8266   1.0322   1.0681

          k = 0.2500 0.0000-0.7221 ( 23254 PWs)   bands (ev):

   -23.3936 -23.3936  -9.2470  -9.2468  -8.7585  -8.7585  -8.7009  -8.7009
    -4.6630  -4.6627  -4.3011  -4.3007  -1.4017  -1.4012  -0.3925  -0.3920
     0.2150   0.2155   0.5957   0.5970   0.7222   0.7223   0.9784   0.9788

          k = 0.2500 0.2438 0.0000 ( 23265 PWs)   bands (ev):

   -23.4132 -23.4073  -9.0621  -8.9130  -8.8438  -8.6781  -8.6230  -8.5833
    -5.5055  -4.8395  -4.3970  -4.1236  -1.0359  -0.6686  -0.4638   0.0242
     0.0926   0.1510   0.4731   0.6348   0.6410   0.7383   0.7958   0.9575

          k = 0.2500 0.2438 0.3611 ( 23247 PWs)   bands (ev):

   -23.4040 -23.3998  -9.0103  -8.9595  -8.9481  -8.7887  -8.7451  -8.6727
    -5.0404  -4.5848  -4.4079  -4.3150  -1.0655  -0.8227  -0.7087  -0.1242
     0.0309   0.2241   0.3273   0.5663   0.6685   0.7868   0.9511   1.0440

          k = 0.2500 0.2438-0.7221 ( 23232 PWs)   bands (ev):

   -23.3936 -23.3936  -9.2551  -9.2257  -8.7879  -8.7340  -8.7109  -8.7013
    -4.9028  -4.6774  -4.2755  -4.0425  -1.3777  -1.2811  -0.4775  -0.3347
     0.1576   0.1644   0.5613   0.6438   0.7190   0.7812   0.9257   0.9491

          k = 0.2500-0.4875 0.0000 ( 23252 PWs)   bands (ev):

   -23.4102 -23.4102  -9.0321  -9.0321  -8.7233  -8.7233  -8.6028  -8.6028
    -5.1133  -5.1133  -4.3662  -4.3662  -0.7259  -0.7259  -0.1968  -0.1968
     0.0227   0.0227   0.5315   0.5315   0.8030   0.8030   0.8084   0.8084

          k = 0.2500-0.4875 0.3611 ( 23248 PWs)   bands (ev):

   -23.4019 -23.4019  -9.0024  -9.0024  -8.8721  -8.8721  -8.6911  -8.6911
    -4.8139  -4.8139  -4.3752  -4.3752  -0.9751  -0.9751  -0.3576  -0.3576
     0.1785   0.1785   0.5264   0.5264   0.6856   0.6856   0.9213   0.9213

          k = 0.2500-0.4875-0.7221 ( 23284 PWs)   bands (ev):

   -23.3935 -23.3935  -9.2353  -9.2353  -8.7643  -8.7643  -8.7091  -8.7091
    -4.9061  -4.9061  -4.0279  -4.0279  -1.2522  -1.2522  -0.4677  -0.4677
     0.2859   0.2859   0.4228   0.4228   0.7858   0.7858   0.9364   0.9364

          k =-0.5000 0.0000 0.0000 ( 23220 PWs)   bands (ev):

   -23.4102 -23.4102  -8.9057  -8.9057  -8.8633  -8.8633  -8.6033  -8.6033
    -5.1798  -5.1798  -4.2101  -4.2101  -0.8958  -0.8958  -0.0544  -0.0544
     0.3382   0.3382   0.3430   0.3430   0.4353   0.4353   0.8820   0.8820

          k =-0.5000 0.0000 0.3611 ( 23268 PWs)   bands (ev):

   -23.4019 -23.4019  -9.0233  -9.0233  -8.8173  -8.8173  -8.7300  -8.7300
    -4.7483  -4.7483  -4.4060  -4.4060  -1.0296  -1.0296  -0.4275  -0.4275
     0.1843   0.1843   0.3887   0.3887   0.7895   0.7895   1.0206   1.0206

          k =-0.5000 0.0000-0.7221 ( 23272 PWs)   bands (ev):

   -23.3935 -23.3935  -9.2680  -9.2680  -8.7431  -8.7431  -8.6956  -8.6956
    -4.7256  -4.7256  -4.1973  -4.1973  -1.6296  -1.6296  -0.0518  -0.0518
     0.2181   0.2181   0.3859   0.3859   0.9222   0.9222   0.9293   0.9293

          k =-0.5000 0.2438 0.0000 ( 23268 PWs)   bands (ev):

   -23.4102 -23.4102  -9.0300  -9.0300  -8.7315  -8.7315  -8.6028  -8.6028
    -5.1602  -5.1602  -4.2663  -4.2663  -0.7824  -0.7824  -0.0617  -0.0617
     0.0944   0.0944   0.2990   0.2990   0.7051   0.7051   0.8636   0.8636

          k =-0.5000 0.2438 0.3611 ( 23258 PWs)   bands (ev):

   -23.4019 -23.4019  -9.0064  -9.0064  -8.8769  -8.8769  -8.6898  -8.6898
    -4.7067  -4.7067  -4.4520  -4.4520  -1.0368  -1.0368  -0.3917  -0.3917
     0.2186   0.2186   0.4351   0.4351   0.7816   0.7816   0.9477   0.9477

          k =-0.5000 0.2438-0.7221 ( 23268 PWs)   bands (ev):

   -23.3935 -23.3935  -9.2421  -9.2421  -8.7676  -8.7676  -8.7083  -8.7083
    -4.7293  -4.7293  -4.1817  -4.1817  -1.5127  -1.5127  -0.2861  -0.2861
     0.2630   0.2630   0.4720   0.4720   0.8453   0.8453   0.9984   0.9984

          k =-0.5000-0.4875 0.0000 ( 23304 PWs)   bands (ev):

   -23.4102 -23.4102  -9.0872  -9.0872  -8.6666  -8.6666  -8.6022  -8.6022
    -5.1387  -5.1387  -4.3231  -4.3231  -0.6236  -0.6236  -0.2170  -0.2170
    -0.0177  -0.0177   0.4889   0.4889   0.7072   0.7072   0.8437   0.8437

          k =-0.5000-0.4875 0.3611 ( 23244 PWs)   bands (ev):

   -23.4019 -23.4019  -8.9724  -8.9724  -8.9366  -8.9366  -8.6666  -8.6666
    -4.6421  -4.6421  -4.5207  -4.5207  -1.0275  -1.0275  -0.4263  -0.4263
     0.3807   0.3807   0.5204   0.5204   0.6733   0.6733   0.8609   0.8609

          k =-0.5000-0.4875-0.7221 ( 23272 PWs)   bands (ev):

   -23.3935 -23.3935  -9.2123  -9.2123  -8.7998  -8.7998  -8.7173  -8.7173
    -4.7339  -4.7339  -4.1649  -4.1649  -1.3364  -1.3364  -0.6073  -0.6073
     0.5076   0.5076   0.5533   0.5533   0.7014   0.7014   0.9603   0.9603

     highest occupied level (ev):     1.1192

!    total energy              =    -156.47101733 Ry
     estimated scf accuracy    <          4.4E-11 Ry

     The total energy is the sum of the following terms:
     one-electron contribution =     -19.50377247 Ry
     hartree contribution      =      24.82578060 Ry
     xc contribution           =     -49.32981261 Ry
     ewald contribution        =    -112.46321285 Ry

     convergence has been achieved in  11 iterations

     Forces acting on atoms (cartesian axes, Ry/au):

     atom    1 type  2   force =     0.00000000    0.00000000    0.00001537
     atom    2 type  2   force =     0.00000000    0.00000000   -0.00001537
     atom    3 type  1   force =    -0.00025109   -0.00120364   -0.00001108
     atom    4 type  1   force =     0.00025109    0.00120364   -0.00001108
     atom    5 type  1   force =    -0.00025109    0.00120364    0.00001108
     atom    6 type  1   force =     0.00025109   -0.00120364    0.00001108
     atom    7 type  3   force =    -0.00988903    0.00248485   -0.00001360
     atom    8 type  3   force =     0.00988903   -0.00248485   -0.00001360
     atom    9 type  3   force =    -0.00988903   -0.00248485    0.00001360
     atom   10 type  3   force =     0.00988903    0.00248485    0.00001360
     atom   11 type  3   force =     0.00653268    0.00788259    0.00000401
     atom   12 type  3   force =    -0.00653268   -0.00788259    0.00000401
     atom   13 type  3   force =     0.00653268   -0.00788259   -0.00000401
     atom   14 type  3   force =    -0.00653268    0.00788259   -0.00000401
     atom   15 type  3   force =     0.00123407   -0.00581673   -0.00882022
     atom   16 type  3   force =    -0.00123407    0.00581673   -0.00882022
     atom   17 type  3   force =     0.00123407    0.00581673    0.00882022
     atom   18 type  3   force =    -0.00123407   -0.00581673    0.00882022
     atom   19 type  3   force =    -0.00119511    0.00579747    0.00880770
     atom   20 type  3   force =     0.00119511   -0.00579747    0.00880770
     atom   21 type  3   force =    -0.00119511   -0.00579747   -0.00880770
     atom   22 type  3   force =     0.00119511    0.00579747   -0.00880770

     Total force =     0.041764     Total SCF correction =     0.000004


     Computing stress (Cartesian axis) and pressure

          total   stress  (Ry/bohr**3)                   (kbar)     P=       23.13
   0.00014598   0.00000000   0.00000000           21.47        0.00        0.00
   0.00000000   0.00014907   0.00000000            0.00       21.93        0.00
   0.00000000   0.00000000   0.00017674            0.00        0.00       26.00

     Volume is kept fixed: isostatic pressure set to zero

     BFGS Geometry Optimization
     Energy error            =      0.0E+00 Ry
     Gradient error          =      9.9E-03 Ry/Bohr
     Cell gradient error     =      2.9E+00 kbar

     number of scf cycles    =   1
     number of bfgs steps    =   0

     enthalpy           new  =    -156.4710173341 Ry

     new trust radius        =       0.0106373672 bohr
ibrav =      8
 celldm(1) =     12.46671060
 celldm(2) =      1.02565009
 celldm(3) =      0.69292684
Input lattice vectors:
     0.99971796     0.00000000     0.00000000
     0.00000000     1.02536082     0.00000000
     0.00000000     0.00000000     0.69273141
New lattice vectors in INITIAL alat:
     0.99971796     0.00000000     0.00000000
     0.00000000     1.02536082     0.00000000
     0.00000000     0.00000000     0.69273141
New lattice vectors in NEW alat (for information only):
     1.00000000     0.00000000     0.00000000
     0.00000000     1.02565009     0.00000000
     0.00000000     0.00000000     0.69292684
Discrepancy in bohr =     0.000000    0.000000    0.000000
     new conv_thr            =            1.0E-10 Ry

     new unit-cell volume =   1377.02633 a.u.^3 (   204.05425 Ang^3 )
     density =      2.71821 g/cm^3

CELL_PARAMETERS (alat= 12.47022768)
   0.999717961   0.000000000   0.000000000
   0.000000000   1.025360821   0.000000000
   0.000000000   0.000000000   0.692731412

ATOMIC_POSITIONS (crystal)
Ba               0.5000000000        0.5000000000        0.5001009454
Ba               0.0000000000        0.0000000000        0.9998990546
B                0.6102368812        0.2391082654        0.0000643731
B                0.3897631188        0.7608917346        0.0000643731
B                0.1102368812        0.2608917346        0.4999356269
B                0.8897631188        0.7391082654        0.4999356269
H                0.4333042407        0.2923500235        0.0002293586
H                0.5666957593        0.7076499765        0.0002293586
H                0.9333042407        0.2076499765        0.4997706414
H                0.0666957593        0.7923500235        0.4997706414
H                0.7225841300        0.3841713614       -0.0000079069
H                0.2774158700        0.6158286386       -0.0000079069
H                0.2225841300        0.1158286386        0.5000079069
H                0.7774158700        0.8841713614        0.5000079069
H                0.6393488860        0.1416395756        0.7794768826
H                0.3606511140        0.8583604244        0.7794768826
H                0.1393488860        0.3583604244        0.7205231174
H                0.8606511140        0.6416395756        0.7205231174
H                0.3604369937        0.8584092278        0.2205449296
H                0.6395630063        0.1415907722        0.2205449296
H                0.8604369937        0.6415907722        0.2794550704
H                0.1395630063        0.3584092278        0.2794550704



     Writing config-only to output data dir ./pwscf.save/ :
     XML data file
     NEW-OLD atomic charge density approx. for the potential

     total cpu time spent up to now is      235.3 secs

     Self-consistent Calculation

     iteration #  1     ecut=   100.00 Ry     beta= 0.70
     Davidson diagonalization with overlap
     ethr =  1.00E-06,  avg # of iterations =  4.0

     total cpu time spent up to now is      254.3 secs

     total energy              =    -156.47228099 Ry
     estimated scf accuracy    <       0.00042995 Ry

     iteration #  2     ecut=   100.00 Ry     beta= 0.70
     Davidson diagonalization with overlap
     ethr =  8.96E-07,  avg # of iterations =  2.0

     total cpu time spent up to now is      268.7 secs

     total energy              =    -156.47240025 Ry
     estimated scf accuracy    <       0.00008152 Ry

     iteration #  3     ecut=   100.00 Ry     beta= 0.70
     Davidson diagonalization with overlap
     ethr =  1.70E-07,  avg # of iterations =  2.0

     total cpu time spent up to now is      283.1 secs

     total energy              =    -156.47241157 Ry
     estimated scf accuracy    <       0.00000093 Ry

     iteration #  4     ecut=   100.00 Ry     beta= 0.70
     Davidson diagonalization with overlap
     ethr =  1.93E-09,  avg # of iterations =  3.0

     total cpu time spent up to now is      300.9 secs

     total energy              =    -156.47241204 Ry
     estimated scf accuracy    <       0.00000064 Ry

     iteration #  5     ecut=   100.00 Ry     beta= 0.70
     Davidson diagonalization with overlap
     ethr =  1.33E-09,  avg # of iterations =  2.0

     total cpu time spent up to now is      315.2 secs

     total energy              =    -156.47241213 Ry
     estimated scf accuracy    <       0.00000002 Ry

     iteration #  6     ecut=   100.00 Ry     beta= 0.70
     Davidson diagonalization with overlap
     ethr =  3.24E-11,  avg # of iterations =  5.2

     total cpu time spent up to now is      334.6 secs

     total energy              =    -156.47241214 Ry
     estimated scf accuracy    <          5.9E-09 Ry

     iteration #  7     ecut=   100.00 Ry     beta= 0.70
     Davidson diagonalization with overlap
     ethr =  1.24E-11,  avg # of iterations =  2.7

     total cpu time spent up to now is      349.3 secs

     total energy              =    -156.47241214 Ry
     estimated scf accuracy    <          1.6E-10 Ry

     iteration #  8     ecut=   100.00 Ry     beta= 0.70
     Davidson diagonalization with overlap
     ethr =  3.23E-13,  avg # of iterations =  6.0

     total cpu time spent up to now is      372.4 secs

     End of self-consistent calculation

          k = 0.0000 0.0000 0.0000 ( 23289 PWs)   bands (ev):

   -23.4063 -23.3944  -9.0636  -8.9540  -8.7094  -8.6604  -8.6348  -8.5550
    -5.8588  -4.8454  -4.0242  -3.8912  -1.5556  -0.6060  -0.4739  -0.1562
     0.2482   0.2772   0.3512   0.4474   0.6274   1.0749   1.0811   1.1271

          k = 0.0000 0.0000 0.3609 ( 23257 PWs)   bands (ev):

   -23.3963 -23.3879  -8.9486  -8.9468  -8.9222  -8.8715  -8.6863  -8.6594
    -5.2777  -4.5294  -4.2410  -4.1631  -1.1290  -0.8589  -0.4068  -0.3508
    -0.1828  -0.0464   0.3469   0.6577   0.8412   0.9039   0.9908   1.1422

          k = 0.0000 0.0000-0.7218 ( 23256 PWs)   bands (ev):

   -23.3838 -23.3838  -9.2128  -9.2126  -8.7680  -8.7680  -8.6957  -8.6957
    -4.4925  -4.4921  -4.4500  -4.4495  -0.8941  -0.8935  -0.8855  -0.8839
     0.2272   0.2281   0.3642   0.3660   0.9583   0.9587   0.9752   0.9753

          k = 0.0000 0.2438 0.0000 ( 23221 PWs)   bands (ev):

   -23.4046 -23.3961  -9.0289  -8.9155  -8.7814  -8.7062  -8.6229  -8.5664
    -5.6287  -4.7380  -4.3551  -4.0437  -1.1508  -0.6786  -0.6778   0.1456
     0.1758   0.1904   0.4999   0.6408   0.7170   0.7292   0.9784   1.0510

          k = 0.0000 0.2438 0.3609 ( 23231 PWs)   bands (ev):

   -23.3951 -23.3891  -9.0061  -8.9604  -8.8541  -8.8355  -8.6995  -8.6880
    -5.1658  -4.6161  -4.2813  -4.2024  -0.9296  -0.8851  -0.7042  -0.0805
    -0.0349   0.1661   0.1831   0.7151   0.7781   0.8453   0.9477   1.0075

          k = 0.0000 0.2438-0.7218 ( 23278 PWs)   bands (ev):

   -23.3838 -23.3838  -9.2293  -9.2291  -8.7437  -8.7436  -8.6946  -8.6946
    -4.8528  -4.8528  -4.0735  -4.0735  -1.0384  -1.0377  -0.6790  -0.6781
     0.3210   0.3212   0.3940   0.3956   0.7651   0.7653   0.9674   0.9676

          k = 0.0000-0.4876 0.0000 ( 23188 PWs)   bands (ev):

   -23.4003 -23.4003  -8.9271  -8.9271  -8.8101  -8.8101  -8.5944  -8.5944
    -5.0652  -5.0652  -4.3766  -4.3766  -0.8118  -0.8118  -0.1749  -0.1749
     0.0808   0.0808   0.6292   0.6292   0.7734   0.7734   0.8937   0.8937

          k = 0.0000-0.4876 0.3609 ( 23256 PWs)   bands (ev):

   -23.3921 -23.3921  -9.0070  -9.0070  -8.7788  -8.7788  -8.7404  -8.7404
    -4.8894  -4.8894  -4.2692  -4.2692  -0.8733  -0.8733  -0.4479  -0.4479
     0.2351   0.2351   0.5320   0.5320   0.6893   0.6893   0.9186   0.9186

          k = 0.0000-0.4876-0.7218 ( 23240 PWs)   bands (ev):

   -23.3837 -23.3837  -9.2443  -9.2443  -8.7227  -8.7227  -8.6913  -8.6913
    -5.0080  -5.0080  -3.9021  -3.9021  -1.1391  -1.1391  -0.3957  -0.3957
     0.2296   0.2296   0.4648   0.4648   0.5552   0.5552   1.0062   1.0062

          k = 0.2501 0.0000 0.0000 ( 23246 PWs)   bands (ev):

   -23.4046 -23.3961  -9.0155  -8.9326  -8.7655  -8.7308  -8.6229  -8.5664
    -5.6380  -4.8588  -4.0799  -4.0730  -1.3486  -0.4356  -0.3928  -0.2891
     0.2997   0.3518   0.4067   0.4762   0.5807   0.6121   1.0319   1.0664

          k = 0.2501 0.0000 0.3609 ( 23262 PWs)   bands (ev):

   -23.3950 -23.3891  -8.9958  -8.9752  -8.8896  -8.8056  -8.7197  -8.6731
    -5.1114  -4.4986  -4.3093  -4.2837  -1.1021  -0.8462  -0.7057  -0.1292
    -0.1266   0.1856   0.4167   0.5584   0.7188   0.8464   1.0551   1.0893

          k = 0.2501 0.0000-0.7218 ( 23254 PWs)   bands (ev):

   -23.3837 -23.3837  -9.2356  -9.2355  -8.7496  -8.7496  -8.6917  -8.6916
    -4.6315  -4.6312  -4.2733  -4.2730  -1.4047  -1.4041  -0.3887  -0.3883
     0.2324   0.2329   0.6136   0.6149   0.7419   0.7420   1.0007   1.0011

          k = 0.2501 0.2438 0.0000 ( 23265 PWs)   bands (ev):

   -23.4033 -23.3973  -9.0519  -8.9028  -8.8345  -8.6688  -8.6142  -8.5743
    -5.4840  -4.8102  -4.3688  -4.0937  -1.0311  -0.6614  -0.4528   0.0371
     0.1054   0.1638   0.4922   0.6502   0.6606   0.7546   0.8176   0.9786

          k = 0.2501 0.2438 0.3609 ( 23247 PWs)   bands (ev):

   -23.3941 -23.3899  -9.0000  -8.9493  -8.9384  -8.7785  -8.7361  -8.6635
    -5.0180  -4.5549  -4.3792  -4.2835  -1.0664  -0.8217  -0.7028  -0.1113
     0.0445   0.2393   0.3449   0.5838   0.6887   0.8075   0.9726   1.0651

          k = 0.2501 0.2438-0.7218 ( 23232 PWs)   bands (ev):

   -23.3837 -23.3837  -9.2437  -9.2144  -8.7790  -8.7252  -8.7018  -8.6920
    -4.8722  -4.6471  -4.2466  -4.0139  -1.3804  -1.2841  -0.4724  -0.3312
     0.1744   0.1815   0.5782   0.6618   0.7395   0.8022   0.9464   0.9725

          k = 0.2501-0.4876 0.0000 ( 23252 PWs)   bands (ev):

   -23.4003 -23.4003  -9.0220  -9.0220  -8.7139  -8.7139  -8.5939  -8.5939
    -5.0885  -5.0885  -4.3375  -4.3375  -0.7181  -0.7181  -0.1839  -0.1839
     0.0350   0.0350   0.5491   0.5491   0.8196   0.8196   0.8296   0.8296

          k = 0.2501-0.4876 0.3609 ( 23248 PWs)   bands (ev):

   -23.3920 -23.3920  -8.9923  -8.9923  -8.8622  -8.8622  -8.6818  -8.6818
    -4.7880  -4.7880  -4.3454  -4.3454  -0.9746  -0.9746  -0.3476  -0.3476
     0.1932   0.1932   0.5445   0.5445   0.7053   0.7053   0.9422   0.9422

          k = 0.2501-0.4876-0.7218 ( 23284 PWs)   bands (ev):

   -23.3837 -23.3837  -9.2239  -9.2239  -8.7555  -8.7555  -8.6999  -8.6999
    -4.8761  -4.8761  -3.9988  -3.9988  -1.2548  -1.2548  -0.4628  -0.4628
     0.3041   0.3041   0.4386   0.4386   0.8066   0.8066   0.9584   0.9584

          k =-0.5001 0.0000 0.0000 ( 23220 PWs)   bands (ev):

   -23.4003 -23.4003  -8.8952  -8.8952  -8.8542  -8.8542  -8.5944  -8.5944
    -5.1560  -5.1560  -4.1789  -4.1789  -0.8927  -0.8927  -0.0422  -0.0422
     0.3495   0.3495   0.3628   0.3628   0.4524   0.4524   0.9050   0.9050

          k =-0.5001 0.0000 0.3609 ( 23268 PWs)   bands (ev):

   -23.3920 -23.3920  -9.0131  -9.0131  -8.8074  -8.8074  -8.7209  -8.7209
    -4.7238  -4.7238  -4.3741  -4.3741  -1.0307  -1.0307  -0.4189  -0.4189
     0.2011   0.2011   0.4064   0.4064   0.8088   0.8088   1.0430   1.0430

          k =-0.5001 0.0000-0.7218 ( 23272 PWs)   bands (ev):

   -23.3837 -23.3837  -9.2566  -9.2566  -8.7343  -8.7343  -8.6863  -8.6863
    -4.6930  -4.6930  -4.1701  -4.1701  -1.6338  -1.6338  -0.0467  -0.0467
     0.2355   0.2355   0.4041   0.4041   0.9454   0.9454   0.9487   0.9487

          k =-0.5001 0.2438 0.0000 ( 23268 PWs)   bands (ev):

   -23.4003 -23.4003  -9.0200  -9.0200  -8.7220  -8.7220  -8.5939  -8.5939
    -5.1352  -5.1352  -4.2374  -4.2374  -0.7756  -0.7756  -0.0493  -0.0493
     0.1066   0.1066   0.3161   0.3161   0.7216   0.7216   0.8859   0.8859

          k =-0.5001 0.2438 0.3609 ( 23258 PWs)   bands (ev):

   -23.3920 -23.3920  -8.9964  -8.9964  -8.8670  -8.8670  -8.6805  -8.6805
    -4.6813  -4.6813  -4.4214  -4.4214  -1.0374  -1.0374  -0.3819  -0.3819
     0.2347   0.2347   0.4527   0.4527   0.8017   0.8017   0.9685   0.9685

          k =-0.5001 0.2438-0.7218 ( 23268 PWs)   bands (ev):

   -23.3837 -23.3837  -9.2307  -9.2307  -8.7588  -8.7588  -8.6991  -8.6991
    -4.6976  -4.6976  -4.1536  -4.1536  -1.5169  -1.5169  -0.2799  -0.2799
     0.2790   0.2790   0.4908   0.4908   0.8661   0.8661   1.0202   1.0202

          k =-0.5001-0.4876 0.0000 ( 23304 PWs)   bands (ev):

   -23.4002 -23.4002  -9.0773  -9.0773  -8.6572  -8.6572  -8.5934  -8.5934
    -5.1123  -5.1123  -4.2965  -4.2965  -0.6106  -0.6106  -0.2082  -0.2082
    -0.0060  -0.0060   0.5070   0.5070   0.7265   0.7265   0.8609   0.8609

          k =-0.5001-0.4876 0.3609 ( 23244 PWs)   bands (ev):

   -23.3920 -23.3920  -8.9629  -8.9629  -8.9261  -8.9261  -8.6573  -8.6573
    -4.6151  -4.6151  -4.4919  -4.4919  -1.0276  -1.0276  -0.4157  -0.4157
     0.3962   0.3962   0.5409   0.5409   0.6927   0.6927   0.8791   0.8791

          k =-0.5001-0.4876-0.7218 ( 23272 PWs)   bands (ev):

   -23.3837 -23.3837  -9.2009  -9.2009  -8.7909  -8.7909  -8.7082  -8.7082
    -4.7031  -4.7031  -4.1359  -4.1359  -1.3406  -1.3406  -0.6019  -0.6019
     0.5260   0.5260   0.5739   0.5739   0.7200   0.7200   0.9809   0.9809

     highest occupied level (ev):     1.1422

!    total energy              =    -156.47241214 Ry
     estimated scf accuracy    <          2.4E-11 Ry

     The total energy is the sum of the following terms:
     one-electron contribution =     -19.18754147 Ry
     hartree contribution      =      24.66896277 Ry
     xc contribution           =     -49.29050217 Ry
     ewald contribution        =    -112.66333127 Ry

     convergence has been achieved in   8 iterations

     Forces acting on atoms (cartesian axes, Ry/au):

     atom    1 type  2   force =     0.00000000    0.00000000    0.00001277
     atom    2 type  2   force =     0.00000000    0.00000000   -0.00001277
     atom    3 type  1   force =    -0.00031583   -0.00132655   -0.00001205
     atom    4 type  1   force =     0.00031583    0.00132655   -0.00001205
     atom    5 type  1   force =    -0.00031583    0.00132655    0.00001205
     atom    6 type  1   force =     0.00031583   -0.00132655    0.00001205
     atom    7 type  3   force =    -0.00595839    0.00131340   -0.00001729
     atom    8 type  3   force =     0.00595839   -0.00131340   -0.00001729
     atom    9 type  3   force =    -0.00595839   -0.00131340    0.00001729
     atom   10 type  3   force =     0.00595839    0.00131340    0.00001729
     atom   11 type  3   force =     0.00392422    0.00438171    0.00000461
     atom   12 type  3   force =    -0.00392422   -0.00438171    0.00000461
     atom   13 type  3   force =     0.00392422   -0.00438171   -0.00000461
     atom   14 type  3   force =    -0.00392422    0.00438171   -0.00000461
     atom   15 type  3   force =     0.00053736   -0.00344634   -0.00500580
     atom   16 type  3   force =    -0.00053736    0.00344634   -0.00500580
     atom   17 type  3   force =     0.00053736    0.00344634    0.00500580
     atom   18 type  3   force =    -0.00053736   -0.00344634    0.00500580
     atom   19 type  3   force =    -0.00049533    0.00342938    0.00499817
     atom   20 type  3   force =     0.00049533   -0.00342938    0.00499817
     atom   21 type  3   force =    -0.00049533   -0.00342938   -0.00499817
     atom   22 type  3   force =     0.00049533    0.00342938   -0.00499817

     Total force =     0.024323     Total SCF correction =     0.000003


     Computing stress (Cartesian axis) and pressure

          total   stress  (Ry/bohr**3)                   (kbar)     P=       17.81
   0.00011305   0.00000000   0.00000000           16.63        0.00        0.00
   0.00000000   0.00011414   0.00000000            0.00       16.79        0.00
   0.00000000   0.00000000   0.00013604            0.00        0.00       20.01

     Volume is kept fixed: isostatic pressure set to zero
     Energy error            =      1.4E-03 Ry
     Gradient error          =      6.0E-03 Ry/Bohr
     Cell gradient error     =      2.2E+00 kbar

     number of scf cycles    =   2
     number of bfgs steps    =   1

     enthalpy           old  =    -156.4710173341 Ry
     enthalpy           new  =    -156.4724121439 Ry

     CASE: enthalpy          _new < enthalpy          _old

     new trust radius        =       0.0117042618 bohr
ibrav =      8
 celldm(1) =     12.46192131
 celldm(2) =      1.02570440
 celldm(3) =      0.69368933
Input lattice vectors:
     0.99933390     0.00000000     0.00000000
     0.00000000     1.02502118     0.00000000
     0.00000000     0.00000000     0.69322726
New lattice vectors in INITIAL alat:
     0.99933390     0.00000000     0.00000000
     0.00000000     1.02502118     0.00000000
     0.00000000     0.00000000     0.69322726
New lattice vectors in NEW alat (for information only):
     1.00000000     0.00000000     0.00000000
     0.00000000     1.02570440     0.00000000
     0.00000000     0.00000000     0.69368933
Discrepancy in bohr =     0.000000    0.000000    0.000000
     new conv_thr            =            1.0E-10 Ry

     new unit-cell volume =   1377.02633 a.u.^3 (   204.05425 Ang^3 )
     density =      2.71821 g/cm^3

CELL_PARAMETERS (alat= 12.47022768)
   0.999333904   0.000000000   0.000000000
   0.000000000   1.025021181   0.000000000
   0.000000000   0.000000000   0.693227262

ATOMIC_POSITIONS (crystal)
Ba               0.5000000000        0.5000000000        0.5001037753
Ba               0.0000000000        0.0000000000        0.9998962247
B                0.6101885374        0.2389101605        0.0000617066
B                0.3898114626        0.7610898395        0.0000617066
B                0.1101885374        0.2610898395        0.4999382934
B                0.8898114626        0.7389101605        0.4999382934
H                0.4323886931        0.2925470219        0.0002255329
H                0.5676113069        0.7074529781        0.0002255329
H                0.9323886931        0.2074529781        0.4997744671
H                0.0676113069        0.7925470219        0.4997744671
H                0.7231871265        0.3848283085       -0.0000068856
H                0.2768128735        0.6151716915       -0.0000068856
H                0.2231871265        0.1151716915        0.5000068856
H                0.7768128735        0.8848283085        0.5000068856
H                0.6394316879        0.1411231213        0.7783646397
H                0.3605683121        0.8588768787        0.7783646397
H                0.1394316879        0.3588768787        0.7216353603
H                0.8605683121        0.6411231213        0.7216353603
H                0.3603606295        0.8589231464        0.2216554772
H                0.6396393705        0.1410768536        0.2216554772
H                0.8603606295        0.6410768536        0.2783445228
H                0.1396393705        0.3589231464        0.2783445228



     Writing config-only to output data dir ./pwscf.save/ :
     XML data file
     NEW-OLD atomic charge density approx. for the potential

     total cpu time spent up to now is      401.7 secs

     Self-consistent Calculation

     iteration #  1     ecut=   100.00 Ry     beta= 0.70
     Davidson diagonalization with overlap
     ethr =  1.00E-06,  avg # of iterations =  4.0

     total cpu time spent up to now is      421.2 secs

     total energy              =    -156.47295689 Ry
     estimated scf accuracy    <       0.00053480 Ry

     iteration #  2     ecut=   100.00 Ry     beta= 0.70
     Davidson diagonalization with overlap
     ethr =  1.11E-06,  avg # of iterations =  2.0

     total cpu time spent up to now is      435.6 secs

     total energy              =    -156.47310869 Ry
     estimated scf accuracy    <       0.00010729 Ry

     iteration #  3     ecut=   100.00 Ry     beta= 0.70
     Davidson diagonalization with overlap
     ethr =  2.24E-07,  avg # of iterations =  2.0

     total cpu time spent up to now is      449.7 secs

     total energy              =    -156.47312330 Ry
     estimated scf accuracy    <       0.00000134 Ry

     iteration #  4     ecut=   100.00 Ry     beta= 0.70
     Davidson diagonalization with overlap
     ethr =  2.79E-09,  avg # of iterations =  3.0

     total cpu time spent up to now is      467.1 secs

     total energy              =    -156.47312398 Ry
     estimated scf accuracy    <       0.00000083 Ry

     iteration #  5     ecut=   100.00 Ry     beta= 0.70
     Davidson diagonalization with overlap
     ethr =  1.74E-09,  avg # of iterations =  2.0

     total cpu time spent up to now is      481.2 secs

     total energy              =    -156.47312409 Ry
     estimated scf accuracy    <       0.00000002 Ry

     iteration #  6     ecut=   100.00 Ry     beta= 0.70
     Davidson diagonalization with overlap
     ethr =  4.75E-11,  avg # of iterations =  5.1

     total cpu time spent up to now is      499.7 secs

     total energy              =    -156.47312411 Ry
     estimated scf accuracy    <       0.00000001 Ry

     iteration #  7     ecut=   100.00 Ry     beta= 0.70
     Davidson diagonalization with overlap
     ethr =  2.44E-11,  avg # of iterations =  2.2

     total cpu time spent up to now is      513.9 secs

     total energy              =    -156.47312411 Ry
     estimated scf accuracy    <          1.8E-10 Ry

     iteration #  8     ecut=   100.00 Ry     beta= 0.70
     Davidson diagonalization with overlap
     ethr =  3.80E-13,  avg # of iterations =  6.4

     total cpu time spent up to now is      537.5 secs

     End of self-consistent calculation

          k = 0.0000 0.0000 0.0000 ( 23289 PWs)   bands (ev):

   -23.3958 -23.3838  -9.0519  -8.9436  -8.6989  -8.6506  -8.6254  -8.5452
    -5.8376  -4.8099  -3.9908  -3.8553  -1.5554  -0.5906  -0.4662  -0.1333
     0.2641   0.2876   0.3606   0.4628   0.6395   1.1009   1.1088   1.1570

          k = 0.0000 0.0000 0.3606 ( 23257 PWs)   bands (ev):

   -23.3858 -23.3773  -8.9369  -8.9359  -8.9102  -8.8616  -8.6761  -8.6497
    -5.2564  -4.4965  -4.2056  -4.1257  -1.1313  -0.8558  -0.4035  -0.3348
    -0.1713  -0.0343   0.3650   0.6798   0.8665   0.9299   1.0121   1.1690

          k = 0.0000 0.0000-0.7213 ( 23256 PWs)   bands (ev):

   -23.3733 -23.3733  -9.1994  -9.1992  -8.7586  -8.7586  -8.6858  -8.6858
    -4.4655  -4.4651  -4.4120  -4.4114  -0.8955  -0.8949  -0.8852  -0.8836
     0.2478   0.2487   0.3826   0.3844   0.9854   0.9856   0.9981   0.9983

          k = 0.0000 0.2439 0.0000 ( 23221 PWs)   bands (ev):

   -23.3940 -23.3855  -9.0173  -8.9049  -8.7709  -8.6963  -8.6134  -8.5567
    -5.6066  -4.7021  -4.3265  -4.0082  -1.1457  -0.6702  -0.6665   0.1591
     0.1869   0.2143   0.5169   0.6551   0.7417   0.7434   1.0044   1.0784

          k = 0.0000 0.2439 0.3606 ( 23231 PWs)   bands (ev):

   -23.3846 -23.3786  -8.9948  -8.9487  -8.8428  -8.8254  -8.6892  -8.6783
    -5.1428  -4.5840  -4.2477  -4.1662  -0.9292  -0.8826  -0.6986  -0.0711
    -0.0207   0.1868   0.1978   0.7374   0.8019   0.8704   0.9706   1.0324

          k = 0.0000 0.2439-0.7213 ( 23278 PWs)   bands (ev):

   -23.3733 -23.3733  -9.2161  -9.2159  -8.7343  -8.7343  -8.6846  -8.6846
    -4.8204  -4.8203  -4.0412  -4.0412  -1.0380  -1.0373  -0.6792  -0.6784
     0.3417   0.3419   0.4137   0.4153   0.7874   0.7875   0.9932   0.9934

          k = 0.0000-0.4878 0.0000 ( 23188 PWs)   bands (ev):

   -23.3897 -23.3897  -8.9156  -8.9156  -8.8004  -8.8004  -8.5848  -8.5848
    -5.0398  -5.0398  -4.3422  -4.3422  -0.8052  -0.8052  -0.1586  -0.1586
     0.0924   0.0924   0.6554   0.6554   0.7883   0.7883   0.9177   0.9177

          k = 0.0000-0.4878 0.3606 ( 23256 PWs)   bands (ev):

   -23.3815 -23.3815  -8.9956  -8.9956  -8.7675  -8.7675  -8.7310  -8.7310
    -4.8619  -4.8619  -4.2352  -4.2352  -0.8711  -0.8711  -0.4396  -0.4396
     0.2523   0.2523   0.5492   0.5492   0.7154   0.7154   0.9423   0.9423

          k = 0.0000-0.4878-0.7213 ( 23240 PWs)   bands (ev):

   -23.3733 -23.3733  -9.2312  -9.2312  -8.7134  -8.7134  -8.6812  -8.6812
    -4.9754  -4.9754  -3.8703  -3.8703  -1.1388  -1.1388  -0.3960  -0.3960
     0.2513   0.2513   0.4837   0.4837   0.5778   0.5778   1.0325   1.0325

          k = 0.2502 0.0000 0.0000 ( 23246 PWs)   bands (ev):

   -23.3940 -23.3855  -9.0038  -8.9223  -8.7548  -8.7210  -8.6134  -8.5567
    -5.6154  -4.8254  -4.0460  -4.0389  -1.3470  -0.4236  -0.3832  -0.2711
     0.3131   0.3639   0.4195   0.4967   0.5949   0.6341   1.0594   1.0964

          k = 0.2502 0.0000 0.3606 ( 23262 PWs)   bands (ev):

   -23.3845 -23.3785  -8.9845  -8.9636  -8.8786  -8.7952  -8.7096  -8.6632
    -5.0886  -4.4663  -4.2738  -4.2483  -1.1051  -0.8405  -0.7048  -0.1140
    -0.1119   0.2003   0.4375   0.5798   0.7399   0.8690   1.0822   1.1137

          k = 0.2502 0.0000-0.7213 ( 23254 PWs)   bands (ev):

   -23.3733 -23.3733  -9.2224  -9.2222  -8.7403  -8.7402  -8.6818  -8.6817
    -4.5963  -4.5959  -4.2431  -4.2427  -1.4083  -1.4078  -0.3853  -0.3850
     0.2532   0.2537   0.6339   0.6353   0.7640   0.7642   1.0262   1.0267

          k = 0.2502 0.2439 0.0000 ( 23265 PWs)   bands (ev):

   -23.3927 -23.3867  -9.0408  -8.8917  -8.8245  -8.6587  -8.6047  -8.5646
    -5.4601  -4.7770  -4.3381  -4.0607  -1.0245  -0.6524  -0.4390   0.0528
     0.1169   0.1753   0.5151   0.6648   0.6845   0.7701   0.8438   1.0041

          k = 0.2502 0.2439 0.3606 ( 23247 PWs)   bands (ev):

   -23.3836 -23.3794  -8.9885  -8.9378  -8.9280  -8.7673  -8.7265  -8.6536
    -4.9936  -4.5221  -4.3472  -4.2482  -1.0675  -0.8205  -0.6957  -0.0972
     0.0599   0.2555   0.3643   0.6039   0.7118   0.8310   0.9969   1.0894

          k = 0.2502 0.2439-0.7213 ( 23232 PWs)   bands (ev):

   -23.3733 -23.3733  -9.2305  -9.2012  -8.7697  -8.7159  -8.6920  -8.6819
    -4.8382  -4.6135  -4.2148  -3.9827  -1.3837  -1.2876  -0.4677  -0.3284
     0.1944   0.2018   0.5964   0.6819   0.7645   0.8257   0.9692   1.0005

          k = 0.2502-0.4878 0.0000 ( 23252 PWs)   bands (ev):

   -23.3897 -23.3897  -9.0111  -9.0111  -8.7037  -8.7037  -8.5843  -8.5843
    -5.0606  -5.0606  -4.3061  -4.3061  -0.7086  -0.7086  -0.1675  -0.1675
     0.0458   0.0458   0.5705   0.5705   0.8354   0.8354   0.8550   0.8550

          k = 0.2502-0.4878 0.3606 ( 23248 PWs)   bands (ev):

   -23.3815 -23.3815  -8.9811  -8.9811  -8.8513  -8.8513  -8.6718  -8.6718
    -4.7595  -4.7595  -4.3123  -4.3123  -0.9740  -0.9740  -0.3362  -0.3362
     0.2091   0.2091   0.5647   0.5647   0.7286   0.7286   0.9657   0.9657

          k = 0.2502-0.4878-0.7213 ( 23284 PWs)   bands (ev):

   -23.3732 -23.3732  -9.2107  -9.2107  -8.7462  -8.7462  -8.6900  -8.6900
    -4.8428  -4.8428  -3.9669  -3.9669  -1.2576  -1.2576  -0.4586  -0.4586
     0.3247   0.3247   0.4572   0.4572   0.8301   0.8301   0.9841   0.9841

          k =-0.5003 0.0000 0.0000 ( 23220 PWs)   bands (ev):

   -23.3897 -23.3897  -8.8836  -8.8836  -8.8446  -8.8446  -8.5848  -8.5848
    -5.1292  -5.1292  -4.1445  -4.1445  -0.8880  -0.8880  -0.0281  -0.0281
     0.3588   0.3588   0.3866   0.3866   0.4692   0.4692   0.9333   0.9333

          k =-0.5003 0.0000 0.3606 ( 23268 PWs)   bands (ev):

   -23.3815 -23.3815  -9.0017  -9.0017  -8.7966  -8.7966  -8.7110  -8.7110
    -4.6968  -4.6968  -4.3386  -4.3386  -1.0322  -1.0322  -0.4092  -0.4092
     0.2201   0.2201   0.4259   0.4259   0.8297   0.8297   1.0695   1.0695

          k =-0.5003 0.0000-0.7213 ( 23272 PWs)   bands (ev):

   -23.3732 -23.3732  -9.2435  -9.2435  -8.7249  -8.7249  -8.6763  -8.6763
    -4.6562  -4.6562  -4.1408  -4.1408  -1.6390  -1.6390  -0.0419  -0.0419
     0.2564   0.2564   0.4243   0.4243   0.9699   0.9699   0.9731   0.9731

          k =-0.5003 0.2439 0.0000 ( 23268 PWs)   bands (ev):

   -23.3897 -23.3897  -9.0092  -9.0092  -8.7117  -8.7117  -8.5843  -8.5843
    -5.1069  -5.1069  -4.2056  -4.2056  -0.7669  -0.7669  -0.0343  -0.0343
     0.1173   0.1173   0.3369   0.3369   0.7373   0.7373   0.9130   0.9130

          k =-0.5003 0.2439 0.3606 ( 23258 PWs)   bands (ev):

   -23.3815 -23.3815  -8.9852  -8.9852  -8.8561  -8.8561  -8.6706  -8.6706
    -4.6533  -4.6533  -4.3873  -4.3873  -1.0382  -1.0382  -0.3711  -0.3711
     0.2537   0.2537   0.4718   0.4718   0.8239   0.8239   0.9928   0.9928

          k =-0.5003 0.2439-0.7213 ( 23268 PWs)   bands (ev):

   -23.3732 -23.3732  -9.2174  -9.2174  -8.7495  -8.7495  -8.6892  -8.6892
    -4.6621  -4.6621  -4.1232  -4.1232  -1.5218  -1.5218  -0.2739  -0.2739
     0.2983   0.2983   0.5114   0.5114   0.8906   0.8906   1.0448   1.0448

          k =-0.5003-0.4878 0.0000 ( 23304 PWs)   bands (ev):

   -23.3897 -23.3897  -9.0665  -9.0665  -8.6470  -8.6470  -8.5837  -8.5837
    -5.0822  -5.0822  -4.2676  -4.2676  -0.5953  -0.5953  -0.1967  -0.1967
     0.0043   0.0043   0.5299   0.5299   0.7488   0.7488   0.8775   0.8775

          k =-0.5003-0.4878 0.3606 ( 23244 PWs)   bands (ev):

   -23.3814 -23.3814  -8.9527  -8.9527  -8.9142  -8.9142  -8.6474  -8.6474
    -4.5852  -4.5852  -4.4601  -4.4601  -1.0278  -1.0278  -0.4042  -0.4042
     0.4133   0.4133   0.5645   0.5645   0.7156   0.7156   0.8988   0.8988

          k =-0.5003-0.4878-0.7213 ( 23272 PWs)   bands (ev):

   -23.3732 -23.3732  -9.1875  -9.1875  -8.7816  -8.7816  -8.6984  -8.6984
    -4.6687  -4.6687  -4.1043  -4.1043  -1.3452  -1.3452  -0.5968  -0.5968
     0.5459   0.5459   0.5977   0.5977   0.7434   0.7434   1.0035   1.0035

     highest occupied level (ev):     1.1690

!    total energy              =    -156.47312411 Ry
     estimated scf accuracy    <          5.1E-11 Ry

     The total energy is the sum of the following terms:
     one-electron contribution =     -18.82750447 Ry
     hartree contribution      =      24.49053373 Ry
     xc contribution           =     -49.24695507 Ry
     ewald contribution        =    -112.88919830 Ry

     convergence has been achieved in   8 iterations

     Forces acting on atoms (cartesian axes, Ry/au):

     atom    1 type  2   force =     0.00000000    0.00000000    0.00000787
     atom    2 type  2   force =     0.00000000    0.00000000   -0.00000787
     atom    3 type  1   force =    -0.00039703   -0.00082469   -0.00000927
     atom    4 type  1   force =     0.00039703    0.00082469   -0.00000927
     atom    5 type  1   force =    -0.00039703    0.00082469    0.00000927
     atom    6 type  1   force =     0.00039703   -0.00082469    0.00000927
     atom    7 type  3   force =    -0.00163765    0.00001559   -0.00002164
     atom    8 type  3   force =     0.00163765   -0.00001559   -0.00002164
     atom    9 type  3   force =    -0.00163765   -0.00001559    0.00002164
     atom   10 type  3   force =     0.00163765    0.00001559    0.00002164
     atom   11 type  3   force =     0.00094421    0.00039573    0.00000475
     atom   12 type  3   force =    -0.00094421   -0.00039573    0.00000475
     atom   13 type  3   force =     0.00094421   -0.00039573   -0.00000475
     atom   14 type  3   force =    -0.00094421    0.00039573   -0.00000475
     atom   15 type  3   force =    -0.00017959   -0.00106043   -0.00100112
     atom   16 type  3   force =     0.00017959    0.00106043   -0.00100112
     atom   17 type  3   force =    -0.00017959    0.00106043    0.00100112
     atom   18 type  3   force =     0.00017959   -0.00106043    0.00100112
     atom   19 type  3   force =     0.00022348    0.00104594    0.00099681
     atom   20 type  3   force =    -0.00022348   -0.00104594    0.00099681
     atom   21 type  3   force =     0.00022348   -0.00104594   -0.00099681
     atom   22 type  3   force =    -0.00022348    0.00104594   -0.00099681

     Total force =     0.005955     Total SCF correction =     0.000004


     Computing stress (Cartesian axis) and pressure

          total   stress  (Ry/bohr**3)                   (kbar)     P=       11.97
   0.00007623   0.00000000   0.00000000           11.21        0.00        0.00
   0.00000000   0.00007612   0.00000000            0.00       11.20        0.00
   0.00000000   0.00000000   0.00009180            0.00        0.00       13.50

     Volume is kept fixed: isostatic pressure set to zero
     Energy error            =      7.1E-04 Ry
     Gradient error          =      1.6E-03 Ry/Bohr
     Cell gradient error     =      1.5E+00 kbar

     number of scf cycles    =   3
     number of bfgs steps    =   2

     enthalpy           old  =    -156.4724121439 Ry
     enthalpy           new  =    -156.4731241084 Ry

     CASE: enthalpy          _new < enthalpy          _old

     new trust radius        =       0.0039648031 bohr
ibrav =      8
 celldm(1) =     12.45907570
 celldm(2) =      1.02570945
 celldm(3) =      0.69416133
Input lattice vectors:
     0.99910571     0.00000000     0.00000000
     0.00000000     1.02479217     0.00000000
     0.00000000     0.00000000     0.69354055
New lattice vectors in INITIAL alat:
     0.99910571     0.00000000     0.00000000
     0.00000000     1.02479217     0.00000000
     0.00000000     0.00000000     0.69354055
New lattice vectors in NEW alat (for information only):
     1.00000000     0.00000000     0.00000000
     0.00000000     1.02570945     0.00000000
     0.00000000     0.00000000     0.69416133
Discrepancy in bohr =     0.000000    0.000000    0.000000
     new conv_thr            =            7.1E-11 Ry

     new unit-cell volume =   1377.02633 a.u.^3 (   204.05425 Ang^3 )
     density =      2.71821 g/cm^3

CELL_PARAMETERS (alat= 12.47022768)
   0.999105711   0.000000000   0.000000000
   0.000000000   1.024792165   0.000000000
   0.000000000   0.000000000   0.693540548

ATOMIC_POSITIONS (crystal)
Ba               0.5000000000        0.5000000000        0.5001054101
Ba               0.0000000000        0.0000000000        0.9998945899
B                0.6101394961        0.2387952952        0.0000598893
B                0.3898605039        0.7612047048        0.0000598893
B                0.1101394961        0.2612047048        0.4999401107
B                0.8898605039        0.7387952952        0.4999401107
H                0.4320723522        0.2925799808        0.0002216642
H                0.5679276478        0.7074200192        0.0002216642
H                0.9320723522        0.2074200192        0.4997783358
H                0.0679276478        0.7925799808        0.4997783358
H                0.7233814092        0.3849730490       -0.0000060083
H                0.2766185908        0.6150269510       -0.0000060083
H                0.2233814092        0.1150269510        0.5000060083
H                0.7766185908        0.8849730490        0.5000060083
H                0.6394262159        0.1409330449        0.7780364691
H                0.3605737841        0.8590669551        0.7780364691
H                0.1394262159        0.3590669551        0.7219635309
H                0.8605737841        0.6409330449        0.7219635309
H                0.3603716959        0.8591113477        0.2219827252
H                0.6396283041        0.1408886523        0.2219827252
H                0.8603716959        0.6408886523        0.2780172748
H                0.1396283041        0.3591113477        0.2780172748



     Writing config-only to output data dir ./pwscf.save/ :
     XML data file
     NEW-OLD atomic charge density approx. for the potential

     total cpu time spent up to now is      566.6 secs

     Self-consistent Calculation

     iteration #  1     ecut=   100.00 Ry     beta= 0.70
     Davidson diagonalization with overlap
     ethr =  1.00E-06,  avg # of iterations =  2.0

     Threshold (ethr) on eigenvalues was too large:
     Diagonalizing with lowered threshold

     Davidson diagonalization with overlap
     ethr =  7.98E-08,  avg # of iterations =  2.0

     total cpu time spent up to now is      594.5 secs

     total energy              =    -156.47316352 Ry
     estimated scf accuracy    <       0.00005074 Ry

     iteration #  2     ecut=   100.00 Ry     beta= 0.70
     Davidson diagonalization with overlap
     ethr =  1.06E-07,  avg # of iterations =  2.0

     total cpu time spent up to now is      608.9 secs

     total energy              =    -156.47317784 Ry
     estimated scf accuracy    <       0.00000975 Ry

     iteration #  3     ecut=   100.00 Ry     beta= 0.70
     Davidson diagonalization with overlap
     ethr =  2.03E-08,  avg # of iterations =  2.0

     total cpu time spent up to now is      623.3 secs

     total energy              =    -156.47317912 Ry
     estimated scf accuracy    <       0.00000015 Ry

     iteration #  4     ecut=   100.00 Ry     beta= 0.70
     Davidson diagonalization with overlap
     ethr =  3.14E-10,  avg # of iterations =  3.0

     total cpu time spent up to now is      640.9 secs

     total energy              =    -156.47317920 Ry
     estimated scf accuracy    <       0.00000008 Ry

     iteration #  5     ecut=   100.00 Ry     beta= 0.70
     Davidson diagonalization with overlap
     ethr =  1.72E-10,  avg # of iterations =  2.0

     total cpu time spent up to now is      655.3 secs

     total energy              =    -156.47317921 Ry
     estimated scf accuracy    <          9.2E-10 Ry

     iteration #  6     ecut=   100.00 Ry     beta= 0.70
     Davidson diagonalization with overlap
     ethr =  1.91E-12,  avg # of iterations =  6.1

     total cpu time spent up to now is      679.2 secs

     total energy              =    -156.47317921 Ry
     estimated scf accuracy    <          7.2E-10 Ry

     iteration #  7     ecut=   100.00 Ry     beta= 0.70
     Davidson diagonalization with overlap
     ethr =  1.49E-12,  avg # of iterations =  2.0

     total cpu time spent up to now is      693.6 secs

     End of self-consistent calculation

          k = 0.0000 0.0000 0.0000 ( 23289 PWs)   bands (ev):

   -23.3930 -23.3810  -9.0484  -8.9406  -8.6958  -8.6479  -8.6230  -8.5426
    -5.8310  -4.7989  -3.9804  -3.8440  -1.5541  -0.5856  -0.4637  -0.1249
     0.2682   0.2924   0.3618   0.4669   0.6416   1.1096   1.1176   1.1683

          k = 0.0000 0.0000 0.3605 ( 23257 PWs)   bands (ev):

   -23.3831 -23.3746  -8.9331  -8.9328  -8.9062  -8.8589  -8.6733  -8.6470
    -5.2504  -4.4869  -4.1943  -4.1137  -1.1316  -0.8545  -0.4017  -0.3297
    -0.1682  -0.0313   0.3708   0.6867   0.8743   0.9390   1.0190   1.1788

          k = 0.0000 0.0000-0.7209 ( 23256 PWs)   bands (ev):

   -23.3706 -23.3706  -9.1947  -9.1944  -8.7563  -8.7562  -8.6831  -8.6831
    -4.4582  -4.4578  -4.3995  -4.3989  -0.8962  -0.8956  -0.8844  -0.8829
     0.2543   0.2551   0.3882   0.3900   0.9954   0.9955   1.0056   1.0059

          k = 0.0000 0.2440 0.0000 ( 23221 PWs)   bands (ev):

   -23.3912 -23.3827  -9.0138  -8.9018  -8.7679  -8.6936  -8.6110  -8.5541
    -5.5997  -4.6908  -4.3179  -3.9972  -1.1427  -0.6675  -0.6625   0.1621
     0.1888   0.2229   0.5236   0.6585   0.7465   0.7512   1.0129   1.0872

          k = 0.0000 0.2440 0.3605 ( 23231 PWs)   bands (ev):

   -23.3818 -23.3758  -8.9913  -8.9450  -8.8394  -8.8225  -8.6862  -8.6757
    -5.1362  -4.5744  -4.2372  -4.1547  -0.9286  -0.8814  -0.6964  -0.0687
    -0.0164   0.1938   0.2021   0.7446   0.8096   0.8795   0.9777   1.0409

          k = 0.0000 0.2440-0.7209 ( 23278 PWs)   bands (ev):

   -23.3706 -23.3706  -9.2114  -9.2112  -8.7319  -8.7319  -8.6818  -8.6818
    -4.8105  -4.8105  -4.0315  -4.0315  -1.0372  -1.0366  -0.6796  -0.6787
     0.3483   0.3486   0.4200   0.4216   0.7947   0.7947   1.0026   1.0028

          k = 0.0000-0.4879 0.0000 ( 23188 PWs)   bands (ev):

   -23.3870 -23.3870  -8.9121  -8.9121  -8.7976  -8.7976  -8.5823  -8.5823
    -5.0317  -5.0317  -4.3318  -4.3318  -0.8026  -0.8026  -0.1522  -0.1522
     0.0946   0.0946   0.6649   0.6649   0.7920   0.7920   0.9255   0.9255

          k = 0.0000-0.4879 0.3605 ( 23256 PWs)   bands (ev):

   -23.3788 -23.3788  -8.9921  -8.9921  -8.7642  -8.7642  -8.7283  -8.7283
    -4.8538  -4.8538  -4.2246  -4.2246  -0.8701  -0.8701  -0.4367  -0.4367
     0.2577   0.2577   0.5542   0.5542   0.7251   0.7251   0.9496   0.9496

          k = 0.0000-0.4879-0.7209 ( 23240 PWs)   bands (ev):

   -23.3706 -23.3706  -9.2266  -9.2266  -8.7111  -8.7111  -8.6784  -8.6784
    -4.9655  -4.9655  -3.8609  -3.8609  -1.1382  -1.1382  -0.3964  -0.3964
     0.2589   0.2589   0.4895   0.4895   0.5853   0.5853   1.0418   1.0418

          k = 0.2502 0.0000 0.0000 ( 23246 PWs)   bands (ev):

   -23.3912 -23.3827  -9.0003  -8.9193  -8.7516  -8.7183  -8.6110  -8.5541
    -5.6084  -4.8149  -4.0355  -4.0283  -1.3453  -0.4187  -0.3803  -0.2651
     0.3159   0.3665   0.4223   0.5047   0.5982   0.6409   1.0686   1.1077

          k = 0.2502 0.0000 0.3605 ( 23262 PWs)   bands (ev):

   -23.3818 -23.3758  -8.9811  -8.9600  -8.8753  -8.7921  -8.7067  -8.6605
    -5.0820  -4.4567  -4.2625  -4.2371  -1.1060  -0.8382  -0.7045  -0.1099
    -0.1064   0.2046   0.4445   0.5869   0.7461   0.8761   1.0923   1.1218

          k = 0.2502 0.0000-0.7209 ( 23254 PWs)   bands (ev):

   -23.3706 -23.3706  -9.2177  -9.2176  -8.7379  -8.7378  -8.6790  -8.6790
    -4.5852  -4.5848  -4.2343  -4.2339  -1.4094  -1.4089  -0.3841  -0.3838
     0.2598   0.2603   0.6405   0.6419   0.7718   0.7720   1.0350   1.0354

          k = 0.2502 0.2440 0.0000 ( 23265 PWs)   bands (ev):

   -23.3899 -23.3839  -9.0375  -8.8884  -8.8217  -8.6558  -8.6023  -8.5620
    -5.4525  -4.7662  -4.3289  -4.0505  -1.0212  -0.6490  -0.4344   0.0584
     0.1190   0.1774   0.5233   0.6683   0.6933   0.7738   0.8525   1.0130

          k = 0.2502 0.2440 0.3605 ( 23247 PWs)   bands (ev):

   -23.3809 -23.3766  -8.9849  -8.9340  -8.9251  -8.7640  -8.7238  -8.6509
    -4.9865  -4.5122  -4.3373  -4.2371  -1.0679  -0.8201  -0.6929  -0.0928
     0.0649   0.2605   0.3706   0.6101   0.7198   0.8390   1.0048   1.0977

          k = 0.2502 0.2440-0.7209 ( 23232 PWs)   bands (ev):

   -23.3706 -23.3706  -9.2258  -9.1965  -8.7673  -8.7134  -8.6893  -8.6791
    -4.8277  -4.6030  -4.2053  -3.9735  -1.3844  -1.2886  -0.4660  -0.3276
     0.2007   0.2086   0.6020   0.6881   0.7739   0.8334   0.9762   1.0108

          k = 0.2502-0.4879 0.0000 ( 23252 PWs)   bands (ev):

   -23.3869 -23.3869  -9.0079  -9.0079  -8.7008  -8.7008  -8.5817  -8.5817
    -5.0515  -5.0515  -4.2967  -4.2967  -0.7049  -0.7049  -0.1613  -0.1613
     0.0477   0.0477   0.5782   0.5782   0.8394   0.8394   0.8635   0.8635

          k = 0.2502-0.4879 0.3605 ( 23248 PWs)   bands (ev):

   -23.3787 -23.3787  -8.9777  -8.9777  -8.8480  -8.8480  -8.6691  -8.6691
    -4.7510  -4.7510  -4.3021  -4.3021  -0.9737  -0.9737  -0.3321  -0.3321
     0.2139   0.2139   0.5712   0.5712   0.7369   0.7369   0.9730   0.9730

          k = 0.2502-0.4879-0.7209 ( 23284 PWs)   bands (ev):

   -23.3705 -23.3705  -9.2060  -9.2060  -8.7438  -8.7438  -8.6872  -8.6872
    -4.8325  -4.8325  -3.9574  -3.9574  -1.2582  -1.2582  -0.4572  -0.4572
     0.3318   0.3318   0.4632   0.4632   0.8381   0.8381   0.9928   0.9928

          k =-0.5004 0.0000 0.0000 ( 23220 PWs)   bands (ev):

   -23.3869 -23.3869  -8.8801  -8.8801  -8.8419  -8.8419  -8.5823  -8.5823
    -5.1207  -5.1207  -4.1338  -4.1338  -0.8853  -0.8853  -0.0239  -0.0239
     0.3600   0.3600   0.3946   0.3946   0.4736   0.4736   0.9439   0.9439

          k =-0.5004 0.0000 0.3605 ( 23268 PWs)   bands (ev):

   -23.3787 -23.3787  -8.9982  -8.9982  -8.7935  -8.7935  -8.7082  -8.7082
    -4.6887  -4.6887  -4.3276  -4.3276  -1.0329  -1.0329  -0.4054  -0.4054
     0.2261   0.2261   0.4322   0.4322   0.8359   0.8359   1.0789   1.0789

          k =-0.5004 0.0000-0.7209 ( 23272 PWs)   bands (ev):

   -23.3705 -23.3705  -9.2389  -9.2389  -8.7225  -8.7225  -8.6736  -8.6736
    -4.6443  -4.6443  -4.1326  -4.1326  -1.6406  -1.6406  -0.0403  -0.0403
     0.2630   0.2630   0.4313   0.4313   0.9766   0.9766   0.9829   0.9829

          k =-0.5004 0.2440 0.0000 ( 23268 PWs)   bands (ev):

   -23.3869 -23.3869  -9.0060  -9.0060  -8.7088  -8.7088  -8.5818  -8.5818
    -5.0978  -5.0978  -4.1960  -4.1960  -0.7630  -0.7630  -0.0292  -0.0292
     0.1192   0.1192   0.3438   0.3438   0.7412   0.7412   0.9229   0.9229

          k =-0.5004 0.2440 0.3605 ( 23258 PWs)   bands (ev):

   -23.3787 -23.3787  -8.9818  -8.9818  -8.8528  -8.8528  -8.6678  -8.6678
    -4.6447  -4.6447  -4.3768  -4.3768  -1.0385  -1.0385  -0.3671  -0.3671
     0.2598   0.2598   0.4780   0.4780   0.8306   0.8306   1.0013   1.0013

          k =-0.5004 0.2440-0.7209 ( 23268 PWs)   bands (ev):

   -23.3705 -23.3705  -9.2128  -9.2128  -8.7471  -8.7471  -8.6865  -8.6865
    -4.6507  -4.6507  -4.1144  -4.1144  -1.5233  -1.5233  -0.2719  -0.2719
     0.3048   0.3048   0.5180   0.5180   0.8992   0.8992   1.0528   1.0528

          k =-0.5004-0.4879 0.0000 ( 23304 PWs)   bands (ev):

   -23.3869 -23.3869  -9.0633  -9.0633  -8.6441  -8.6441  -8.5812  -8.5812
    -5.0723  -5.0723  -4.2591  -4.2591  -0.5893  -0.5893  -0.1927  -0.1927
     0.0060   0.0060   0.5381   0.5381   0.7565   0.7565   0.8817   0.8817

          k =-0.5004-0.4879 0.3605 ( 23244 PWs)   bands (ev):

   -23.3787 -23.3787  -8.9499  -8.9499  -8.9103  -8.9103  -8.6447  -8.6447
    -4.5759  -4.5759  -4.4504  -4.4504  -1.0278  -1.0278  -0.4003  -0.4003
     0.4191   0.4191   0.5724   0.5724   0.7234   0.7234   0.9047   0.9047

          k =-0.5004-0.4879-0.7209 ( 23272 PWs)   bands (ev):

   -23.3705 -23.3705  -9.1827  -9.1827  -8.7793  -8.7793  -8.6957  -8.6957
    -4.6578  -4.6578  -4.0950  -4.0950  -1.3465  -1.3465  -0.5952  -0.5952
     0.5520   0.5520   0.6062   0.6062   0.7520   0.7520   1.0104   1.0104

     highest occupied level (ev):     1.1788

!    total energy              =    -156.47317921 Ry
     estimated scf accuracy    <          2.2E-11 Ry

     The total energy is the sum of the following terms:
     one-electron contribution =     -18.70549184 Ry
     hartree contribution      =      24.43007123 Ry
     xc contribution           =     -49.23339525 Ry
     ewald contribution        =    -112.96436336 Ry

     convergence has been achieved in   7 iterations

     Forces acting on atoms (cartesian axes, Ry/au):

     atom    1 type  2   force =     0.00000000    0.00000000    0.00000441
     atom    2 type  2   force =     0.00000000    0.00000000   -0.00000441
     atom    3 type  1   force =    -0.00037329   -0.00060503   -0.00000792
     atom    4 type  1   force =     0.00037329    0.00060503   -0.00000792
     atom    5 type  1   force =    -0.00037329    0.00060503    0.00000792
     atom    6 type  1   force =     0.00037329   -0.00060503    0.00000792
     atom    7 type  3   force =    -0.00038636   -0.00034289   -0.00002304
     atom    8 type  3   force =     0.00038636    0.00034289   -0.00002304
     atom    9 type  3   force =    -0.00038636    0.00034289    0.00002304
     atom   10 type  3   force =     0.00038636   -0.00034289    0.00002304
     atom   11 type  3   force =     0.00003505   -0.00077896    0.00000439
     atom   12 type  3   force =    -0.00003505    0.00077896    0.00000439
     atom   13 type  3   force =     0.00003505    0.00077896   -0.00000439
     atom   14 type  3   force =    -0.00003505   -0.00077896   -0.00000439
     atom   15 type  3   force =    -0.00039502   -0.00038060    0.00024909
     atom   16 type  3   force =     0.00039502    0.00038060    0.00024909
     atom   17 type  3   force =    -0.00039502    0.00038060   -0.00024909
     atom   18 type  3   force =     0.00039502   -0.00038060   -0.00024909
     atom   19 type  3   force =     0.00043775    0.00036845   -0.00025144
     atom   20 type  3   force =    -0.00043775   -0.00036845   -0.00025144
     atom   21 type  3   force =     0.00043775   -0.00036845    0.00025144
     atom   22 type  3   force =    -0.00043775    0.00036845    0.00025144

     Total force =     0.002922     Total SCF correction =     0.000003


     Computing stress (Cartesian axis) and pressure

          total   stress  (Ry/bohr**3)                   (kbar)     P=       10.16
   0.00006542   0.00000000   0.00000000            9.62        0.00        0.00
   0.00000000   0.00006502   0.00000000            0.00        9.56        0.00
   0.00000000   0.00000000   0.00007680            0.00        0.00       11.30

     Volume is kept fixed: isostatic pressure set to zero
     Energy error            =      5.5E-05 Ry
     Gradient error          =      7.8E-04 Ry/Bohr
     Cell gradient error     =      1.1E+00 kbar

     number of scf cycles    =   4
     number of bfgs steps    =   3

     enthalpy           old  =    -156.4731241084 Ry
     enthalpy           new  =    -156.4731792113 Ry

     CASE: enthalpy          _new < enthalpy          _old

     new trust radius        =       0.0022045028 bohr
ibrav =      8
 celldm(1) =     12.45728699
 celldm(2) =      1.02569901
 celldm(3) =      0.69446746
Input lattice vectors:
     0.99896227     0.00000000     0.00000000
     0.00000000     1.02463461     0.00000000
     0.00000000     0.00000000     0.69374679
New lattice vectors in INITIAL alat:
     0.99896227     0.00000000     0.00000000
     0.00000000     1.02463461     0.00000000
     0.00000000     0.00000000     0.69374679
New lattice vectors in NEW alat (for information only):
     1.00000000     0.00000000     0.00000000
     0.00000000     1.02569901     0.00000000
     0.00000000     0.00000000     0.69446746
Discrepancy in bohr =     0.000000    0.000000    0.000000
     new conv_thr            =            5.5E-12 Ry

     new unit-cell volume =   1377.02633 a.u.^3 (   204.05425 Ang^3 )
     density =      2.71821 g/cm^3

CELL_PARAMETERS (alat= 12.47022768)
   0.998962273   0.000000000   0.000000000
   0.000000000   1.024634614   0.000000000
   0.000000000   0.000000000   0.693746788

ATOMIC_POSITIONS (crystal)
Ba               0.5000000000        0.5000000000        0.5001062719
Ba               0.0000000000        0.0000000000        0.9998937281
B                0.6100972334        0.2387218566        0.0000585336
B                0.3899027666        0.7612781434        0.0000585336
B                0.1100972334        0.2612781434        0.4999414664
B                0.8899027666        0.7387218566        0.4999414664
H                0.4319785745        0.2925564415        0.0002179649
H                0.5680214255        0.7074435585        0.0002179649
H                0.9319785745        0.2074435585        0.4997820351
H                0.0680214255        0.7925564415        0.4997820351
H                0.7234207243        0.3849323700       -0.0000052800
H                0.2765792757        0.6150676300       -0.0000052800
H                0.2234207243        0.1150676300        0.5000052800
H                0.7765792757        0.8849323700        0.5000052800
H                0.6393899939        0.1408641396        0.7780074307
H                0.3606100061        0.8591358604        0.7780074307
H                0.1393899939        0.3591358604        0.7219925693
H                0.8606100061        0.6408641396        0.7219925693
H                0.3604127654        0.8591788521        0.2220112909
H                0.6395872346        0.1408211479        0.2220112909
H                0.8604127654        0.6408211479        0.2779887091
H                0.1395872346        0.3591788521        0.2779887091



     Writing config-only to output data dir ./pwscf.save/ :
     XML data file
     NEW-OLD atomic charge density approx. for the potential

     total cpu time spent up to now is      722.8 secs

     Self-consistent Calculation

     iteration #  1     ecut=   100.00 Ry     beta= 0.70
     Davidson diagonalization with overlap
     ethr =  1.00E-06,  avg # of iterations =  2.0

     Threshold (ethr) on eigenvalues was too large:
     Diagonalizing with lowered threshold

     Davidson diagonalization with overlap
     ethr =  3.02E-09,  avg # of iterations =  3.5

     total cpu time spent up to now is      752.9 secs

     total energy              =    -156.47319264 Ry
     estimated scf accuracy    <       0.00000236 Ry

     iteration #  2     ecut=   100.00 Ry     beta= 0.70
     Davidson diagonalization with overlap
     ethr =  4.91E-09,  avg # of iterations =  2.0

     total cpu time spent up to now is      767.2 secs

     total energy              =    -156.47319317 Ry
     estimated scf accuracy    <       0.00000024 Ry

     iteration #  3     ecut=   100.00 Ry     beta= 0.70
     Davidson diagonalization with overlap
     ethr =  5.07E-10,  avg # of iterations =  2.0

     total cpu time spent up to now is      781.6 secs

     total energy              =    -156.47319321 Ry
     estimated scf accuracy    <          6.4E-09 Ry

     iteration #  4     ecut=   100.00 Ry     beta= 0.70
     Davidson diagonalization with overlap
     ethr =  1.34E-11,  avg # of iterations =  4.8

     total cpu time spent up to now is      799.1 secs

     total energy              =    -156.47319321 Ry
     estimated scf accuracy    <          1.2E-09 Ry

     iteration #  5     ecut=   100.00 Ry     beta= 0.70
     Davidson diagonalization with overlap
     ethr =  2.60E-12,  avg # of iterations =  4.3

     total cpu time spent up to now is      816.2 secs

     total energy              =    -156.47319321 Ry
     estimated scf accuracy    <          2.8E-11 Ry

     iteration #  6     ecut=   100.00 Ry     beta= 0.70
     Davidson diagonalization with overlap
     ethr =  1.00E-13,  avg # of iterations =  5.2

     total cpu time spent up to now is      836.5 secs

     End of self-consistent calculation

          k = 0.0000 0.0000 0.0000 ( 23289 PWs)   bands (ev):

   -23.3930 -23.3810  -9.0479  -8.9403  -8.6954  -8.6477  -8.6231  -8.5426
    -5.8299  -4.7970  -3.9786  -3.8419  -1.5527  -0.5845  -0.4631  -0.1223
     0.2682   0.2946   0.3603   0.4671   0.6405   1.1116   1.1191   1.1720

          k = 0.0000 0.0000 0.3604 ( 23257 PWs)   bands (ev):

   -23.3831 -23.3746  -8.9325  -8.9324  -8.9053  -8.8588  -8.6731  -8.6470
    -5.2499  -4.4859  -4.1920  -4.1112  -1.1312  -0.8537  -0.4005  -0.3288
    -0.1682  -0.0315   0.3720   0.6879   0.8756   0.9415   1.0205   1.1818

          k = 0.0000 0.0000-0.7207 ( 23256 PWs)   bands (ev):

   -23.3707 -23.3707  -9.1933  -9.1930  -8.7564  -8.7564  -8.6830  -8.6830
    -4.4581  -4.4577  -4.3966  -4.3960  -0.8966  -0.8960  -0.8835  -0.8819
     0.2553   0.2561   0.3892   0.3909   0.9985   0.9986   1.0073   1.0077

          k = 0.0000 0.2440 0.0000 ( 23221 PWs)   bands (ev):

   -23.3913 -23.3828  -9.0133  -8.9015  -8.7676  -8.6934  -8.6110  -8.5541
    -5.5984  -4.6886  -4.3166  -3.9952  -1.1408  -0.6666  -0.6617   0.1615
     0.1878   0.2254   0.5261   0.6583   0.7460   0.7544   1.0150   1.0890

          k = 0.0000 0.2440 0.3604 ( 23231 PWs)   bands (ev):

   -23.3819 -23.3759  -8.9908  -8.9443  -8.8389  -8.8224  -8.6859  -8.6757
    -5.1356  -4.5732  -4.2353  -4.1525  -0.9280  -0.8808  -0.6957  -0.0688
    -0.0156   0.1955   0.2025   0.7461   0.8112   0.8824   0.9789   1.0431

          k = 0.0000 0.2440-0.7207 ( 23278 PWs)   bands (ev):

   -23.3707 -23.3707  -9.2101  -9.2099  -8.7320  -8.7320  -8.6817  -8.6817
    -4.8090  -4.8090  -4.0301  -4.0301  -1.0364  -1.0357  -0.6798  -0.6790
     0.3495   0.3498   0.4214   0.4230   0.7962   0.7962   1.0054   1.0056

          k = 0.0000-0.4880 0.0000 ( 23188 PWs)   bands (ev):

   -23.3870 -23.3870  -8.9116  -8.9116  -8.7975  -8.7975  -8.5823  -8.5823
    -5.0300  -5.0300  -4.3302  -4.3302  -0.8015  -0.8015  -0.1499  -0.1499
     0.0936   0.0936   0.6679   0.6679   0.7918   0.7918   0.9273   0.9273

          k = 0.0000-0.4880 0.3604 ( 23256 PWs)   bands (ev):

   -23.3789 -23.3789  -8.9915  -8.9915  -8.7638  -8.7638  -8.7282  -8.7282
    -4.8528  -4.8528  -4.2228  -4.2228  -0.8696  -0.8696  -0.4358  -0.4358
     0.2586   0.2586   0.5548   0.5548   0.7282   0.7282   0.9509   0.9509

          k = 0.0000-0.4880-0.7207 ( 23240 PWs)   bands (ev):

   -23.3707 -23.3707  -9.2254  -9.2254  -8.7112  -8.7112  -8.6782  -8.6782
    -4.9639  -4.9639  -3.8596  -3.8596  -1.1373  -1.1373  -0.3967  -0.3967
     0.2609   0.2609   0.4905   0.4905   0.5872   0.5872   1.0442   1.0442

          k = 0.2503 0.0000 0.0000 ( 23246 PWs)   bands (ev):

   -23.3912 -23.3828  -8.9999  -8.9191  -8.7513  -8.7182  -8.6111  -8.5541
    -5.6070  -4.8129  -4.0337  -4.0264  -1.3438  -0.4167  -0.3798  -0.2637
     0.3151   0.3658   0.4218   0.5076   0.5976   0.6421   1.0707   1.1113

          k = 0.2503 0.0000 0.3604 ( 23262 PWs)   bands (ev):

[...]
     0.99111405     0.00000000     0.00000000
     0.00000000     1.02700835     0.00000000
     0.00000000     0.00000000     0.69762412
New lattice vectors in INITIAL alat:
     0.99111405     0.00000000     0.00000000
     0.00000000     1.02700835     0.00000000
     0.00000000     0.00000000     0.69762412
New lattice vectors in NEW alat (for information only):
     1.00000000     0.00000000     0.00000000
     0.00000000     1.03621612     0.00000000
     0.00000000     0.00000000     0.70387875
Discrepancy in bohr =     0.000000    0.000000    0.000000
     new conv_thr            =            1.0E-12 Ry

     new unit-cell volume =   1377.02633 a.u.^3 (   204.05425 Ang^3 )
     density =      2.71821 g/cm^3

CELL_PARAMETERS (alat= 12.47022768)
   0.991114047   0.000000000   0.000000000
   0.000000000   1.027008352   0.000000000
   0.000000000   0.000000000   0.697624121

ATOMIC_POSITIONS (crystal)
Ba               0.5000000000        0.5000000000        0.5000012861
Ba               0.0000000000        0.0000000000        0.9999987139
B                0.6053314559        0.2360566620       -0.0000028382
B                0.3946685441        0.7639433380       -0.0000028382
B                0.1053314559        0.2639433380        0.5000028382
B                0.8946685441        0.7360566620        0.5000028382
H                0.4269074270        0.2932635156       -0.0000088206
H                0.5730925730        0.7067364844       -0.0000088206
H                0.9269074270        0.2067364844        0.5000088206
H                0.0730925730        0.7932635156        0.5000088206
H                0.7228104583        0.3794698421        0.0000201276
H                0.2771895417        0.6205301579        0.0000201276
H                0.2228104583        0.1205301579        0.4999798724
H                0.7771895417        0.8794698421        0.4999798724
H                0.6329963885        0.1374794971        0.7796763638
H                0.3670036115        0.8625205029        0.7796763638
H                0.1329963885        0.3625205029        0.7203236362
H                0.8670036115        0.6374794971        0.7203236362
H                0.3670224657        0.8625141628        0.2203253153
H                0.6329775343        0.1374858372        0.2203253153
H                0.8670224657        0.6374858372        0.2796746847
H                0.1329775343        0.3625141628        0.2796746847



     Writing config-only to output data dir ./pwscf.save/ :
     XML data file
     NEW-OLD atomic charge density approx. for the potential

     total cpu time spent up to now is     7917.8 secs

     Self-consistent Calculation

     iteration #  1     ecut=   100.00 Ry     beta= 0.70
     Davidson diagonalization with overlap
     ethr =  1.00E-06,  avg # of iterations =  1.0

     Threshold (ethr) on eigenvalues was too large:
     Diagonalizing with lowered threshold

     Davidson diagonalization with overlap
     ethr =  1.40E-13,  avg # of iterations =  4.0

     total cpu time spent up to now is     7949.7 secs

     total energy              =    -156.47369370 Ry
     estimated scf accuracy    <          8.4E-11 Ry

     iteration #  2     ecut=   100.00 Ry     beta= 0.70
     Davidson diagonalization with overlap
     ethr =  1.74E-13,  avg # of iterations =  2.0

     total cpu time spent up to now is     7963.9 secs

     total energy              =    -156.47369370 Ry
     estimated scf accuracy    <          1.3E-11 Ry

     iteration #  3     ecut=   100.00 Ry     beta= 0.70
     Davidson diagonalization with overlap
     ethr =  1.00E-13,  avg # of iterations =  1.0

     total cpu time spent up to now is     7975.1 secs

     End of self-consistent calculation

          k = 0.0000 0.0000 0.0000 ( 23289 PWs)   bands (ev):

   -23.4211 -23.4092  -9.0543  -8.9395  -8.7079  -8.6639  -8.6439  -8.5648
    -5.8190  -4.7875  -3.9805  -3.8108  -1.5301  -0.5827  -0.4619  -0.1284
     0.3094   0.3367   0.3854   0.5488   0.6273   1.1370   1.1436   1.1878

          k = 0.0000 0.0000 0.3584 ( 23257 PWs)   bands (ev):

   -23.4118 -23.4034  -8.9433  -8.9338  -8.9060  -8.8647  -8.6878  -8.6645
    -5.2631  -4.5010  -4.1786  -4.0767  -1.1274  -0.8085  -0.3260  -0.3030
    -0.1838  -0.0339   0.3703   0.6968   0.8885   0.9809   1.0691   1.2221

          k = 0.0000 0.0000-0.7167 ( 23256 PWs)   bands (ev):

   -23.4001 -23.4001  -9.1801  -9.1801  -8.7732  -8.7732  -8.6987  -8.6987
    -4.4925  -4.4925  -4.3615  -4.3615  -0.8907  -0.8906  -0.8067  -0.8067
     0.2492   0.2494   0.3861   0.3861   1.0234   1.0235   1.0579   1.0579

          k = 0.0000 0.2434 0.0000 ( 23221 PWs)   bands (ev):

   -23.4193 -23.4109  -9.0201  -8.9024  -8.7792  -8.7070  -8.6320  -8.5761
    -5.5878  -4.6686  -4.3263  -3.9727  -1.1096  -0.6578  -0.6535   0.1718
     0.1828   0.2269   0.5941   0.7215   0.7672   0.7729   1.0392   1.1131

          k = 0.0000 0.2434 0.3584 ( 23231 PWs)   bands (ev):

   -23.4106 -23.4046  -8.9953  -8.9462  -8.8468  -8.8293  -8.6995  -8.6917
    -5.1488  -4.5867  -4.2218  -4.1225  -0.9194  -0.8366  -0.6463  -0.0592
     0.0169   0.1827   0.2104   0.7654   0.8183   0.9271   1.0101   1.0784

          k = 0.0000 0.2434-0.7167 ( 23278 PWs)   bands (ev):

   -23.4001 -23.4001  -9.1977  -9.1977  -8.7486  -8.7486  -8.6972  -8.6972
    -4.8120  -4.8120  -4.0277  -4.0277  -0.9543  -0.9543  -0.6755  -0.6754
     0.3357   0.3359   0.4230   0.4231   0.8166   0.8167   1.0534   1.0535

          k = 0.0000-0.4869 0.0000 ( 23188 PWs)   bands (ev):

   -23.4151 -23.4151  -8.9191  -8.9191  -8.8059  -8.8059  -8.6038  -8.6038
    -5.0163  -5.0163  -4.3251  -4.3251  -0.7688  -0.7688  -0.1456  -0.1456
     0.0885   0.0885   0.6904   0.6904   0.8493   0.8493   0.9587   0.9587

          k = 0.0000-0.4869 0.3584 ( 23256 PWs)   bands (ev):

   -23.4076 -23.4076  -8.9945  -8.9945  -8.7720  -8.7720  -8.7423  -8.7423
    -4.8656  -4.8656  -4.2027  -4.2027  -0.8221  -0.8221  -0.4278  -0.4278
     0.2960   0.2960   0.5346   0.5346   0.7666   0.7666   0.9766   0.9766

          k = 0.0000-0.4869-0.7167 ( 23240 PWs)   bands (ev):

   -23.4000 -23.4000  -9.2136  -9.2136  -8.7279  -8.7279  -8.6933  -8.6933
    -4.9652  -4.9652  -3.8600  -3.8600  -1.0501  -1.0501  -0.3845  -0.3845
     0.2243   0.2243   0.4916   0.4916   0.6285   0.6285   1.0742   1.0742

          k = 0.2522 0.0000 0.0000 ( 23246 PWs)   bands (ev):

   -23.4193 -23.4108  -9.0068  -8.9220  -8.7624  -8.7332  -8.6320  -8.5761
    -5.5934  -4.8019  -4.0311  -3.9978  -1.3271  -0.4021  -0.3810  -0.2487
     0.3106   0.3946   0.4553   0.5869   0.6246   0.6423   1.0953   1.1328

          k = 0.2522 0.0000 0.3584 ( 23262 PWs)   bands (ev):

   -23.4105 -23.4046  -8.9833  -8.9641  -8.8833  -8.7993  -8.7207  -8.6767
    -5.0884  -4.4691  -4.2264  -4.2213  -1.0950  -0.8163  -0.6615  -0.1154
    -0.1058   0.2256   0.4831   0.6295   0.7626   0.8907   1.1385   1.1667

          k = 0.2522 0.0000-0.7167 ( 23254 PWs)   bands (ev):

   -23.4000 -23.4000  -9.2045  -9.2045  -8.7550  -8.7550  -8.6949  -8.6949
    -4.5589  -4.5589  -4.2539  -4.2539  -1.3789  -1.3789  -0.3534  -0.3533
     0.2451   0.2453   0.6645   0.6645   0.8259   0.8261   1.0713   1.0715

          k = 0.2522 0.2434 0.0000 ( 23265 PWs)   bands (ev):

   -23.4180 -23.4121  -9.0422  -8.8960  -8.8299  -8.6703  -8.6234  -8.5838
    -5.4326  -4.7359  -4.3337  -4.0425  -0.9882  -0.6274  -0.4126   0.0663
     0.1236   0.1748   0.5590   0.7188   0.7513   0.8115   0.8400   1.0363

          k = 0.2522 0.2434 0.3584 ( 23247 PWs)   bands (ev):

   -23.4096 -23.4054  -8.9880  -8.9352  -8.9344  -8.7722  -8.7371  -8.6675
    -4.9920  -4.5179  -4.3188  -4.2151  -1.0513  -0.7789  -0.6641  -0.0754
     0.0824   0.2813   0.3768   0.6159   0.7614   0.8651   1.0376   1.1327

          k = 0.2522 0.2434-0.7167 ( 23232 PWs)   bands (ev):

   -23.4000 -23.4000  -9.2128  -9.1823  -8.7854  -8.7303  -8.7057  -8.6947
    -4.8138  -4.6054  -4.1955  -3.9815  -1.3354  -1.2646  -0.4000  -0.3006
     0.1774   0.1971   0.6150   0.6807   0.8325   0.8698   0.9980   1.0574

          k = 0.2522-0.4869 0.0000 ( 23252 PWs)   bands (ev):

   -23.4150 -23.4150  -9.0135  -9.0135  -8.7127  -8.7127  -8.6032  -8.6032
    -5.0178  -5.0178  -4.3077  -4.3077  -0.6573  -0.6573  -0.1447  -0.1447
     0.0440   0.0440   0.5973   0.5973   0.8753   0.8753   0.8923   0.8923

          k = 0.2522-0.4869 0.3584 ( 23248 PWs)   bands (ev):

   -23.4075 -23.4075  -8.9818  -8.9818  -8.8548  -8.8548  -8.6840  -8.6840
    -4.7537  -4.7537  -4.2865  -4.2865  -0.9435  -0.9435  -0.2920  -0.2920
     0.2368   0.2368   0.5776   0.5776   0.7422   0.7422   1.0099   1.0099

          k = 0.2522-0.4869-0.7167 ( 23284 PWs)   bands (ev):

   -23.4000 -23.4000  -9.1922  -9.1922  -8.7618  -8.7618  -8.7028  -8.7028
    -4.8300  -4.8300  -3.9531  -3.9531  -1.2097  -1.2097  -0.4083  -0.4083
     0.3188   0.3188   0.4590   0.4590   0.8648   0.8648   1.0262   1.0262

          k =-0.5045 0.0000 0.0000 ( 23220 PWs)   bands (ev):

   -23.4150 -23.4150  -8.8883  -8.8883  -8.8520  -8.8520  -8.6037  -8.6037
    -5.1029  -5.1029  -4.1172  -4.1172  -0.8675  -0.8675  -0.0192  -0.0192
     0.3496   0.3496   0.4293   0.4293   0.5244   0.5244   0.9775   0.9775

          k =-0.5045 0.0000 0.3584 ( 23268 PWs)   bands (ev):

   -23.4075 -23.4075  -9.0018  -9.0018  -8.8039  -8.8039  -8.7214  -8.7214
    -4.6858  -4.6858  -4.3102  -4.3102  -1.0171  -1.0171  -0.3922  -0.3922
     0.2340   0.2340   0.4597   0.4597   0.8747   0.8747   1.1244   1.1244

          k =-0.5045 0.0000-0.7167 ( 23272 PWs)   bands (ev):

   -23.4000 -23.4000  -9.2270  -9.2270  -8.7397  -8.7397  -8.6901  -8.6901
    -4.6009  -4.6009  -4.1665  -4.1665  -1.6179  -1.6179  -0.0136  -0.0136
     0.2412   0.2412   0.4686   0.4686   1.0248   1.0248   1.0359   1.0359

          k =-0.5045 0.2434 0.0000 ( 23268 PWs)   bands (ev):

   -23.4150 -23.4150  -9.0124  -9.0124  -8.7215  -8.7215  -8.6031  -8.6031
    -5.0661  -5.0661  -4.1990  -4.1990  -0.7272  -0.7272   0.0019   0.0019
     0.1198   0.1198   0.3505   0.3505   0.7843   0.7843   0.9408   0.9408

          k =-0.5045 0.2434 0.3584 ( 23258 PWs)   bands (ev):

   -23.4075 -23.4075  -8.9868  -8.9868  -8.8596  -8.8596  -8.6833  -8.6833
    -4.6366  -4.6366  -4.3669  -4.3669  -1.0193  -1.0193  -0.3296  -0.3296
     0.2451   0.2451   0.5260   0.5260   0.8460   0.8460   1.0399   1.0399

          k =-0.5045 0.2434-0.7167 ( 23268 PWs)   bands (ev):

   -23.4000 -23.4000  -9.1996  -9.1996  -8.7650  -8.7650  -8.7030  -8.7030
    -4.6290  -4.6290  -4.1249  -4.1249  -1.4976  -1.4976  -0.2288  -0.2288
     0.2801   0.2801   0.5565   0.5565   0.9449   0.9449   1.0763   1.0763

          k =-0.5045-0.4869 0.0000 ( 23304 PWs)   bands (ev):

   -23.4150 -23.4150  -9.0688  -9.0688  -8.6586  -8.6586  -8.6026  -8.6026
    -5.0226  -5.0226  -4.2852  -4.2852  -0.5186  -0.5186  -0.1736  -0.1736
     0.0038   0.0038   0.5647   0.5647   0.7315   0.7315   0.9311   0.9311

          k =-0.5045-0.4869 0.3584 ( 23244 PWs)   bands (ev):

   -23.4075 -23.4075  -8.9606  -8.9606  -8.9103  -8.9103  -8.6615  -8.6615
    -4.5484  -4.5484  -4.4621  -4.4621  -1.0025  -1.0025  -0.3590  -0.3590
     0.4711   0.4711   0.5427   0.5427   0.7765   0.7765   0.9015   0.9015

          k =-0.5045-0.4869-0.7167 ( 23272 PWs)   bands (ev):

   -23.3999 -23.3999  -9.1676  -9.1676  -8.7987  -8.7987  -8.7121  -8.7121
    -4.6540  -4.6540  -4.0860  -4.0860  -1.3180  -1.3180  -0.5515  -0.5515
     0.5643   0.5643   0.6054   0.6054   0.7977   0.7977   1.0186   1.0186

     highest occupied level (ev):     1.2221

!    total energy              =    -156.47369370 Ry
     estimated scf accuracy    <          3.1E-13 Ry

     The total energy is the sum of the following terms:
     one-electron contribution =     -17.98528287 Ry
     hartree contribution      =      24.07106448 Ry
     xc contribution           =     -49.21162013 Ry
     ewald contribution        =    -113.34785518 Ry

     convergence has been achieved in   3 iterations

     Forces acting on atoms (cartesian axes, Ry/au):

     atom    1 type  2   force =     0.00000000    0.00000000   -0.00000588
     atom    2 type  2   force =     0.00000000    0.00000000    0.00000588
     atom    3 type  1   force =    -0.00000021    0.00000039    0.00000681
     atom    4 type  1   force =     0.00000021   -0.00000039    0.00000681
     atom    5 type  1   force =    -0.00000021   -0.00000039   -0.00000681
     atom    6 type  1   force =     0.00000021    0.00000039   -0.00000681
     atom    7 type  3   force =     0.00000239    0.00000069   -0.00000276
     atom    8 type  3   force =    -0.00000239   -0.00000069   -0.00000276
     atom    9 type  3   force =     0.00000239   -0.00000069    0.00000276
     atom   10 type  3   force =    -0.00000239    0.00000069    0.00000276
     atom   11 type  3   force =    -0.00000080   -0.00000277   -0.00001010
     atom   12 type  3   force =     0.00000080    0.00000277   -0.00001010
     atom   13 type  3   force =    -0.00000080    0.00000277    0.00001010
     atom   14 type  3   force =     0.00000080   -0.00000277    0.00001010
     atom   15 type  3   force =    -0.00000230    0.00000872    0.00000535
     atom   16 type  3   force =     0.00000230   -0.00000872    0.00000535
     atom   17 type  3   force =    -0.00000230   -0.00000872   -0.00000535
     atom   18 type  3   force =     0.00000230    0.00000872   -0.00000535
     atom   19 type  3   force =    -0.00000279    0.00000673    0.00000202
     atom   20 type  3   force =     0.00000279   -0.00000673    0.00000202
     atom   21 type  3   force =    -0.00000279   -0.00000673   -0.00000202
     atom   22 type  3   force =     0.00000279    0.00000673   -0.00000202

     Total force =     0.000038     Total SCF correction =     0.000000


     Computing stress (Cartesian axis) and pressure

          total   stress  (Ry/bohr**3)                   (kbar)     P=        7.16
   0.00004866   0.00000000   0.00000000            7.16        0.00        0.00
   0.00000000   0.00004865   0.00000000            0.00        7.16        0.00
   0.00000000   0.00000000   0.00004864            0.00        0.00        7.15

     Volume is kept fixed: isostatic pressure set to zero
     Message from routine bfgs:
     history already reset at previous step: exiting
     Energy error            =      1.9E-09 Ry
     Gradient error          =      1.0E-05 Ry/Bohr
     Cell gradient error     =      1.9E-03 kbar
ibrav =      8
 celldm(1) =     12.35941783
 celldm(2) =      1.03621612
 celldm(3) =      0.70387875
Input lattice vectors:
     0.99111405     0.00000000     0.00000000
     0.00000000     1.02700835     0.00000000
     0.00000000     0.00000000     0.69762412
New lattice vectors in INITIAL alat:
     0.99111405     0.00000000     0.00000000
     0.00000000     1.02700835     0.00000000
     0.00000000     0.00000000     0.69762412
New lattice vectors in NEW alat (for information only):
     1.00000000     0.00000000     0.00000000
     0.00000000     1.03621612     0.00000000
     0.00000000     0.00000000     0.70387875
Discrepancy in bohr =     0.000000    0.000000    0.000000

     bfgs failed after  55 scf cycles and  54 bfgs steps, convergence not achieved
     (criteria: energy <  1.0E-05 Ry, force <  1.0E-05 Ry/Bohr, cell <  5.0E-01 kbar)

     End of BFGS Geometry Optimization

     Final enthalpy           =    -156.4736937035 Ry

     File ./pwscf.bfgs deleted, as requested
Begin final coordinates
     new unit-cell volume =   1377.02633 a.u.^3 (   204.05425 Ang^3 )
     density =      2.71821 g/cm^3

CELL_PARAMETERS (alat= 12.47022768)
   0.991114047   0.000000000   0.000000000
   0.000000000   1.027008352   0.000000000
   0.000000000   0.000000000   0.697624121

ATOMIC_POSITIONS (crystal)
Ba               0.5000000000        0.5000000000        0.5000012861
Ba               0.0000000000        0.0000000000        0.9999987139
B                0.6053314559        0.2360566620       -0.0000028382
B                0.3946685441        0.7639433380       -0.0000028382
B                0.1053314559        0.2639433380        0.5000028382
B                0.8946685441        0.7360566620        0.5000028382
H                0.4269074270        0.2932635156       -0.0000088206
H                0.5730925730        0.7067364844       -0.0000088206
H                0.9269074270        0.2067364844        0.5000088206
H                0.0730925730        0.7932635156        0.5000088206
H                0.7228104583        0.3794698421        0.0000201276
H                0.2771895417        0.6205301579        0.0000201276
H                0.2228104583        0.1205301579        0.4999798724
H                0.7771895417        0.8794698421        0.4999798724
H                0.6329963885        0.1374794971        0.7796763638
H                0.3670036115        0.8625205029        0.7796763638
H                0.1329963885        0.3625205029        0.7203236362
H                0.8670036115        0.6374794971        0.7203236362
H                0.3670224657        0.8625141628        0.2203253153
H                0.6329775343        0.1374858372        0.2203253153
H                0.8670224657        0.6374858372        0.2796746847
H                0.1329775343        0.3625141628        0.2796746847
End final coordinates



     Writing config-only to output data dir ./pwscf.save/ :
     XML data file

     Writing all to output data dir ./pwscf.save/ :
     XML data file, charge density, pseudopotentials, collected wavefunctions

     init_run     :      9.66s CPU     11.34s WALL (       1 calls)
     electrons    :   6339.23s CPU   6389.89s WALL (      55 calls)
     update_pot   :     12.28s CPU     13.68s WALL (      54 calls)
     forces       :    164.02s CPU    165.41s WALL (      55 calls)
     stress       :   1405.02s CPU   1408.46s WALL (      55 calls)

     Called by init_run:
     wfcinit      :      6.96s CPU      7.02s WALL (       1 calls)
     potinit      :      0.75s CPU      1.36s WALL (       1 calls)
     hinit0       :      1.14s CPU      2.09s WALL (       1 calls)

     Called by electrons:
     c_bands      :   5579.98s CPU   5617.54s WALL (     398 calls)
     sum_band     :    646.60s CPU    653.88s WALL (     398 calls)
     v_of_rho     :     48.88s CPU     51.17s WALL (     405 calls)
     newd         :     67.27s CPU     68.55s WALL (     405 calls)
     mix_rho      :      5.21s CPU      5.64s WALL (     398 calls)

     Called by c_bands:
     init_us_2    :    143.01s CPU    144.53s WALL (   24489 calls)
     cegterg      :   4926.65s CPU   4962.13s WALL (   10746 calls)

     Called by *egterg:
     cdiaghg      :     74.33s CPU     74.80s WALL (   41347 calls)
     h_psi        :   3461.97s CPU   3491.31s WALL (   44128 calls)
     s_psi        :    642.25s CPU    644.57s WALL (   44128 calls)
     g_psi        :     13.33s CPU     13.39s WALL (   33355 calls)

     Called by h_psi:
     h_psi:calbec :    571.81s CPU    574.53s WALL (   44128 calls)
     vloc_psi     :   2231.39s CPU   2255.92s WALL (   44128 calls)
     add_vuspsi   :    647.83s CPU    650.08s WALL (   44128 calls)

     General routines
     calbec       :   1328.34s CPU   1332.65s WALL (   62299 calls)
     fft          :     36.62s CPU     41.38s WALL (    6632 calls)
     ffts         :      2.50s CPU      3.23s WALL (     803 calls)
     fftw         :   2172.98s CPU   2196.30s WALL ( 1826050 calls)
     interpolate  :      3.95s CPU      4.87s WALL (     405 calls)
     davcio       :      0.01s CPU      0.05s WALL (      27 calls)

     Parallel routines

     PWSCF        :      2h12m CPU      2h13m WALL


   This run was terminated on:  17:44: 4  11Jul2024            

=------------------------------------------------------------------------------=
   JOB DONE.
=------------------------------------------------------------------------------=
