
     Program PWSCF v.7.3.1 starts on 12Aug2024 at 11:12:54 

     This program is part of the open-source Quantum ESPRESSO suite
     for quantum simulation of materials; please cite
         "P. Giannozzi et al., J. Phys.:Condens. Matter 21 395502 (2009);
         "P. Giannozzi et al., J. Phys.:Condens. Matter 29 465901 (2017);
         "P. Giannozzi et al., J. Chem. Phys. 152 154105 (2020);
          URL http://www.quantum-espresso.org", 
     in publications or presentations arising from this work. More details at
     http://www.quantum-espresso.org/quote

     Parallel version (MPI), running on    24 processors

     MPI processes distributed on     1 nodes
     81817 MiB available memory on the printing compute node when the environment starts

     Waiting for input...
     Reading input from standard input

     Current dimensions of program PWSCF are:
     Max number of different atomic species (ntypx) = 10
     Max number of k-points (npk) =  40000
     Max angular momentum in pseudopotentials (lmaxx) =  4

     R & G space division:  proc/nbgrp/npool/nimage =      24
     Subspace diagonalization in iterative solution of the eigenvalue problem:
     a serial algorithm will be used


     Parallelization info
     --------------------
     sticks:   dense  smooth     PW     G-vecs:    dense   smooth      PW
     Min         495     248     66                25781     9120    1278
     Max         497     249     67                25782     9122    1281
     Sum       11905    5953   1601               618765   218891   30697

     Using Slab Decomposition


     Title: 
     pre-ph                                                                     


     bravais-lattice index     =            8
     lattice parameter (alat)  =      13.7506  a.u.
     unit-cell volume          =    1619.6113 (a.u.)^3
     number of atoms/cell      =           22
     number of atomic types    =            3
     number of electrons       =        48.00
     number of Kohn-Sham states=           24
     kinetic-energy cutoff     =     100.0000  Ry
     charge density cutoff     =     800.0000  Ry
     scf convergence threshold =      1.0E-10
     mixing beta               =       0.7000
     number of iterations used =            8  plain     mixing
     Exchange-correlation= PBESOL
                           (   1   4  10   8   0   0   0)

     celldm(1)=  13.750592  celldm(2)=   0.988792  celldm(3)=   0.630002
     celldm(4)=   0.000000  celldm(5)=   0.000000  celldm(6)=   0.000000

     crystal axes: (cart. coord. in units of alat)
               a(1) = (   1.000000   0.000000   0.000000 )  
               a(2) = (   0.000000   0.988792   0.000000 )  
               a(3) = (   0.000000   0.000000   0.630002 )  

     reciprocal axes: (cart. coord. in units 2 pi/alat)
               b(1) = (  1.000000  0.000000  0.000000 )  
               b(2) = (  0.000000  1.011335  0.000000 )  
               b(3) = (  0.000000  0.000000  1.587298 )  


     PseudoPot. # 1 for B  read from file:
     /home/mehlhorn/pseudos/b_pbesol_v1.4.uspp.F.UPF
     MD5 check sum: 369b69bef2c3aeed4453bd8b804fd6a8
     Pseudo is Ultrasoft + core correction, Zval =  3.0
     Generated by new atomic code, or converted to UPF format
     Using radial grid of  781 points,  4 beta functions with: 
                l(1) =   0
                l(2) =   0
                l(3) =   1
                l(4) =   1
     Q(r) pseudized with  8 coefficients,  rinner =    1.100   1.100   1.100


     PseudoPot. # 2 for Ba read from file:
     /home/mehlhorn/pseudos/Ba.nc.z_10.oncvpsp4.dojo.v4-sp.upf
     MD5 check sum: c10ed334bb677c0554edec7181ce9143
     Pseudo is Norm-conserving + core correction, Zval = 10.0
     Generated using ONCVPSP code by D. R. Hamann
     Using radial grid of 1938 points,  8 beta functions with: 
                l(1) =   0
                l(2) =   0
                l(3) =   1
                l(4) =   1
                l(5) =   2
                l(6) =   2
                l(7) =   3
                l(8) =   3

     PseudoPot. # 3 for H  read from file:
     /home/mehlhorn/pseudos/H_ONCV_PBEsol-1.0.upf
     MD5 check sum: 398ef8f67c0a7342c05c87c5e19ea467
     Pseudo is Norm-conserving, Zval =  1.0
     Generated using ONCVPSP code by D. R. Hamann
     Using radial grid of 1180 points,  2 beta functions with: 
                l(1) =   0
                l(2) =   0

     atomic species   valence    mass     pseudopotential
     B                 3.00    10.81100     B ( 1.00)
     Ba               10.00   137.32700     Ba( 1.00)
     H                 1.00     1.00794     H ( 1.00)

      4 Sym. Ops. (no inversion) found ( 2 have fractional translation)



   Cartesian axes

     site n.     atom                  positions (alat units)
         1        Ba     tau(   1) = (   0.5000000   0.4943960   0.3150140  )
         2        Ba     tau(   2) = (   0.0000000   0.0000000   0.6299884  )
         3        B      tau(   3) = (   0.6457472   0.2690334   0.0000111  )
         4        B      tau(   4) = (   0.3542528   0.7197587   0.0000111  )
         5        B      tau(   5) = (   0.1457472   0.2253626   0.3149897  )
         6        B      tau(   6) = (   0.8542528   0.7634294   0.3149897  )
         7        H      tau(   7) = (   0.4764411   0.2785492   0.0000131  )
         8        H      tau(   8) = (   0.5235589   0.7102428   0.0000131  )
         9        H      tau(   9) = (   0.9764411   0.2158468   0.3149877  )
        10        H      tau(  10) = (   0.0235589   0.7729453   0.3149877  )
        11        H      tau(  11) = (   0.7125447   0.4253079   0.0000101  )
        12        H      tau(  12) = (   0.2874553   0.5634842   0.0000101  )
        13        H      tau(  13) = (   0.2125447   0.0690881   0.3149907  )
        14        H      tau(  14) = (   0.7874553   0.9197039   0.3149907  )
        15        H      tau(  15) = (   0.6936781   0.1879672   0.4896379  )
        16        H      tau(  16) = (   0.3063219   0.8008249   0.4896379  )
        17        H      tau(  17) = (   0.1936781   0.3064288   0.4553644  )
        18        H      tau(  18) = (   0.8063219   0.6823632   0.4553644  )
        19        H      tau(  19) = (   0.3063087   0.8008213   0.1403829  )
        20        H      tau(  20) = (   0.6936913   0.1879707   0.1403829  )
        21        H      tau(  21) = (   0.8063087   0.6823668   0.1746179  )
        22        H      tau(  22) = (   0.1936913   0.3064253   0.1746179  )

     number of k points=    27
                       cart. coord. in units 2pi/alat
        k(    1) = (   0.0000000   0.0000000   0.0000000), wk =   0.0160000
        k(    2) = (   0.0000000   0.0000000   0.3174595), wk =   0.0320000
        k(    3) = (   0.0000000   0.0000000   0.6349191), wk =   0.0320000
        k(    4) = (   0.0000000   0.2022670   0.0000000), wk =   0.0320000
        k(    5) = (   0.0000000   0.2022670   0.3174595), wk =   0.0640000
        k(    6) = (   0.0000000   0.2022670   0.6349191), wk =   0.0640000
        k(    7) = (   0.0000000   0.4045340   0.0000000), wk =   0.0320000
        k(    8) = (   0.0000000   0.4045340   0.3174595), wk =   0.0640000
        k(    9) = (   0.0000000   0.4045340   0.6349191), wk =   0.0640000
        k(   10) = (   0.2000000   0.0000000   0.0000000), wk =   0.0320000
        k(   11) = (   0.2000000   0.0000000   0.3174595), wk =   0.0640000
        k(   12) = (   0.2000000   0.0000000   0.6349191), wk =   0.0640000
        k(   13) = (   0.2000000   0.2022670   0.0000000), wk =   0.0640000
        k(   14) = (   0.2000000   0.2022670   0.3174595), wk =   0.1280000
        k(   15) = (   0.2000000   0.2022670   0.6349191), wk =   0.1280000
        k(   16) = (   0.2000000   0.4045340   0.0000000), wk =   0.0640000
        k(   17) = (   0.2000000   0.4045340   0.3174595), wk =   0.1280000
        k(   18) = (   0.2000000   0.4045340   0.6349191), wk =   0.1280000
        k(   19) = (   0.4000000   0.0000000   0.0000000), wk =   0.0320000
        k(   20) = (   0.4000000   0.0000000   0.3174595), wk =   0.0640000
        k(   21) = (   0.4000000   0.0000000   0.6349191), wk =   0.0640000
        k(   22) = (   0.4000000   0.2022670   0.0000000), wk =   0.0640000
        k(   23) = (   0.4000000   0.2022670   0.3174595), wk =   0.1280000
        k(   24) = (   0.4000000   0.2022670   0.6349191), wk =   0.1280000
        k(   25) = (   0.4000000   0.4045340   0.0000000), wk =   0.0640000
        k(   26) = (   0.4000000   0.4045340   0.3174595), wk =   0.1280000
        k(   27) = (   0.4000000   0.4045340   0.6349191), wk =   0.1280000

     Dense  grid:   618765 G-vectors     FFT dimensions: ( 128, 128,  80)

     Smooth grid:   218891 G-vectors     FFT dimensions: (  90,  90,  60)

     Estimated max dynamical RAM per process >      73.26 MB

     Estimated total dynamical RAM >       1.72 GB

     Initial potential from superposition of free atoms

     starting charge      47.9682, renormalised to      48.0000
     Starting wfcs are   42 randomized atomic wfcs

     total cpu time spent up to now is       12.9 secs

     Self-consistent Calculation

     iteration #  1     ecut=   100.00 Ry     beta= 0.70
     Davidson diagonalization with overlap
     ethr =  1.00E-02,  avg # of iterations =  2.0

     total cpu time spent up to now is       31.9 secs

     total energy              =    -155.90955491 Ry
     estimated scf accuracy    <       2.17112846 Ry

     iteration #  2     ecut=   100.00 Ry     beta= 0.70
     Davidson diagonalization with overlap
     ethr =  4.52E-03,  avg # of iterations =  2.0

     total cpu time spent up to now is       50.3 secs

     total energy              =    -156.40058555 Ry
     estimated scf accuracy    <       0.37426109 Ry

     iteration #  3     ecut=   100.00 Ry     beta= 0.70
     Davidson diagonalization with overlap
     ethr =  7.80E-04,  avg # of iterations =  2.0

     total cpu time spent up to now is       68.6 secs

     total energy              =    -156.46400182 Ry
     estimated scf accuracy    <       0.00489464 Ry

     iteration #  4     ecut=   100.00 Ry     beta= 0.70
     Davidson diagonalization with overlap
     ethr =  1.02E-05,  avg # of iterations =  5.1

     total cpu time spent up to now is       95.2 secs

     total energy              =    -156.46707229 Ry
     estimated scf accuracy    <       0.00181974 Ry

     iteration #  5     ecut=   100.00 Ry     beta= 0.70
     Davidson diagonalization with overlap
     ethr =  3.79E-06,  avg # of iterations =  3.4

     total cpu time spent up to now is      114.2 secs

     total energy              =    -156.46770225 Ry
     estimated scf accuracy    <       0.00021028 Ry

     iteration #  6     ecut=   100.00 Ry     beta= 0.70
     Davidson diagonalization with overlap
     ethr =  4.38E-07,  avg # of iterations =  4.0

     total cpu time spent up to now is      135.0 secs

     total energy              =    -156.46777909 Ry
     estimated scf accuracy    <       0.00000183 Ry

     iteration #  7     ecut=   100.00 Ry     beta= 0.70
     Davidson diagonalization with overlap
     ethr =  3.82E-09,  avg # of iterations =  9.8

     total cpu time spent up to now is      180.5 secs

     total energy              =    -156.46779213 Ry
     estimated scf accuracy    <       0.00000090 Ry

     iteration #  8     ecut=   100.00 Ry     beta= 0.70
     Davidson diagonalization with overlap
     ethr =  1.87E-09,  avg # of iterations =  2.7

     total cpu time spent up to now is      197.2 secs

     total energy              =    -156.46779216 Ry
     estimated scf accuracy    <       0.00000013 Ry

     iteration #  9     ecut=   100.00 Ry     beta= 0.70
     Davidson diagonalization with overlap
     ethr =  2.80E-10,  avg # of iterations =  4.6

     total cpu time spent up to now is      219.3 secs

     total energy              =    -156.46779221 Ry
     estimated scf accuracy    <       0.00000003 Ry

     iteration # 10     ecut=   100.00 Ry     beta= 0.70
     Davidson diagonalization with overlap
     ethr =  6.94E-11,  avg # of iterations =  3.5

     total cpu time spent up to now is      238.6 secs

     total energy              =    -156.46779222 Ry
     estimated scf accuracy    <          4.3E-10 Ry

     iteration # 11     ecut=   100.00 Ry     beta= 0.70
     Davidson diagonalization with overlap
     ethr =  8.90E-13,  avg # of iterations =  7.4

     total cpu time spent up to now is      276.0 secs

     total energy              =    -156.46779222 Ry
     estimated scf accuracy    <          1.6E-10 Ry

     iteration # 12     ecut=   100.00 Ry     beta= 0.70
     Davidson diagonalization with overlap
     ethr =  3.33E-13,  avg # of iterations =  3.3

     total cpu time spent up to now is      297.1 secs

     End of self-consistent calculation

          k = 0.0000 0.0000 0.0000 ( 27379 PWs)   bands (ev):

   -24.8179 -24.8132 -10.3041 -10.2770 -10.0752 -10.0524  -9.9798  -9.9367
    -6.6693  -5.8736  -5.3558  -5.3195  -2.4460  -1.4380  -1.3377  -1.1898
    -1.1210  -0.9276  -0.8998  -0.6453  -0.4086  -0.2349  -0.1313  -0.1137

          k = 0.0000 0.0000 0.3175 ( 27357 PWs)   bands (ev):

   -24.8124 -24.8085 -10.2440 -10.2221 -10.1724 -10.1503 -10.0612 -10.0433
    -6.3225  -5.6503  -5.4811  -5.4524  -2.1448  -1.8179  -1.6574  -1.2142
    -1.0164  -0.9683  -0.7300  -0.5853  -0.4656  -0.3000  -0.2721  -0.2091

          k = 0.0000 0.0000 0.6349 ( 27368 PWs)   bands (ev):

   -24.8029 -24.8014 -10.4449 -10.4411 -10.1232 -10.1120 -10.0551 -10.0460
    -5.6916  -5.6911  -5.6809  -5.4050  -2.0558  -1.9864  -1.8333  -1.5684
    -1.0188  -0.8873  -0.6744  -0.5268  -0.4500  -0.4125  -0.3399  -0.2963

          k = 0.0000 0.2023 0.0000 ( 27345 PWs)   bands (ev):

   -24.8175 -24.8136 -10.2900 -10.2626 -10.0950 -10.0704  -9.9757  -9.9408
    -6.5784  -5.8886  -5.4422  -5.3548  -2.2986  -1.5889  -1.4011  -0.9873
    -0.9535  -0.9217  -0.8940  -0.6364  -0.4398  -0.3810  -0.2077  -0.1776

          k = 0.0000 0.2023 0.3175 ( 27349 PWs)   bands (ev):

   -24.8120 -24.8089 -10.2416 -10.2093 -10.1658 -10.1629 -10.0628 -10.0546
    -6.2525  -5.6467  -5.5625  -5.4731  -2.0496  -1.8390  -1.6727  -1.0946
    -0.9927  -0.9407  -0.8601  -0.5515  -0.4546  -0.3271  -0.2981  -0.2760

          k = 0.0000 0.2023 0.6349 ( 27350 PWs)   bands (ev):

   -24.8027 -24.8015 -10.4498 -10.4464 -10.1125 -10.1056 -10.0552 -10.0497
    -5.8302  -5.7725  -5.5146  -5.3461  -2.1121  -2.1002  -1.7138  -1.5067
    -0.9529  -0.7906  -0.6881  -0.5258  -0.4814  -0.4659  -0.3567  -0.3431

          k = 0.0000 0.4045 0.0000 ( 27314 PWs)   bands (ev):

   -24.8163 -24.8148 -10.2547 -10.2368 -10.1292 -10.1121  -9.9649  -9.9516
    -6.3372  -6.0448  -5.5089  -5.4400  -2.0174  -1.7978  -1.2575  -0.9063
    -0.8924  -0.8591  -0.7063  -0.6656  -0.5943  -0.5159  -0.3364  -0.3316

          k = 0.0000 0.4045 0.3175 ( 27329 PWs)   bands (ev):

   -24.8110 -24.8098 -10.2278 -10.2000 -10.1766 -10.1542 -10.0736 -10.0710
    -6.0630  -5.8134  -5.5787  -5.5239  -1.9242  -1.8799  -1.5292  -1.2018
    -0.9210  -0.8808  -0.8072  -0.6075  -0.4795  -0.4718  -0.3143  -0.3013

          k = 0.0000 0.4045 0.6349 ( 27366 PWs)   bands (ev):

   -24.8024 -24.8019 -10.4567 -10.4552 -10.0937 -10.0930 -10.0580 -10.0577
    -5.9009  -5.8758  -5.3707  -5.3078  -2.2011  -2.1946  -1.5365  -1.4419
    -0.8256  -0.7009  -0.6524  -0.6427  -0.5245  -0.4955  -0.4157  -0.3812

          k = 0.2000 0.0000 0.0000 ( 27342 PWs)   bands (ev):

   -24.8175 -24.8136 -10.2875 -10.2642 -10.0929 -10.0736  -9.9757  -9.9408
    -6.5818  -5.9091  -5.3867  -5.3773  -2.3122  -1.4320  -1.3730  -1.2322
    -0.9024  -0.9021  -0.8887  -0.6520  -0.4524  -0.3553  -0.2483  -0.1834

          k = 0.2000 0.0000 0.3175 ( 27354 PWs)   bands (ev):

   -24.8120 -24.8089 -10.2301 -10.2241 -10.1639 -10.1615 -10.0705 -10.0476
    -6.2512  -5.6680  -5.5148  -5.4954  -2.0576  -1.7813  -1.7014  -1.1164
    -1.0019  -0.9435  -0.8309  -0.5479  -0.5443  -0.3104  -0.2912  -0.2528

          k = 0.2000 0.0000 0.6349 ( 27349 PWs)   bands (ev):

   -24.8027 -24.8015 -10.4504 -10.4470 -10.1159 -10.1021 -10.0584 -10.0466
    -5.7991  -5.7402  -5.5520  -5.3678  -2.1960  -2.1055  -1.6829  -1.4587
    -0.9133  -0.8271  -0.7027  -0.5586  -0.4392  -0.4374  -0.3809  -0.3239

          k = 0.2000 0.2023 0.0000 ( 27358 PWs)   bands (ev):

   -24.8171 -24.8140 -10.2981 -10.2391 -10.1260 -10.0593  -9.9723  -9.9441
    -6.5135  -5.9413  -5.4709  -5.3592  -2.1961  -1.5860  -1.3866  -1.0682
    -0.9323  -0.8731  -0.7518  -0.6342  -0.5377  -0.4595  -0.3284  -0.1603

          k = 0.2000 0.2023 0.3175 ( 27341 PWs)   bands (ev):

   -24.8117 -24.8092 -10.2398 -10.2051 -10.1833 -10.1500 -10.0737 -10.0480
    -6.1950  -5.6911  -5.5772  -5.4846  -1.9893  -1.8115  -1.6991  -1.0625
    -1.0269  -0.9393  -0.8070  -0.5680  -0.5239  -0.3391  -0.3305  -0.2508

          k = 0.2000 0.2023 0.6349 ( 27363 PWs)   bands (ev):

   -24.8026 -24.8017 -10.4550 -10.4443 -10.1207 -10.0916 -10.0596 -10.0485
    -5.8676  -5.7091  -5.5482  -5.3312  -2.2316  -2.0859  -1.6863  -1.4974
    -0.8191  -0.7770  -0.6919  -0.5400  -0.5244  -0.4419  -0.4121  -0.2861

          k = 0.2000 0.4045 0.0000 ( 27334 PWs)   bands (ev):

   -24.8161 -24.8149 -10.2857 -10.2495 -10.1179 -10.0765  -9.9636  -9.9528
    -6.3293  -6.0967  -5.4875  -5.4171  -1.9645  -1.7707  -1.2852  -0.9468
    -0.9356  -0.9032  -0.7692  -0.5687  -0.5661  -0.4973  -0.4188  -0.2584

          k = 0.2000 0.4045 0.3175 ( 27340 PWs)   bands (ev):

   -24.8109 -24.8099 -10.2363 -10.2143 -10.1758 -10.1503 -10.0707 -10.0559
    -6.0435  -5.8452  -5.5688  -5.5200  -1.9003  -1.8614  -1.5708  -1.2977
    -0.9078  -0.8295  -0.7850  -0.6097  -0.4762  -0.3993  -0.3487  -0.3108

          k = 0.2000 0.4045 0.6349 ( 27347 PWs)   bands (ev):

   -24.8023 -24.8019 -10.4547 -10.4483 -10.1124 -10.0950 -10.0571 -10.0515
    -5.8823  -5.8127  -5.4228  -5.3335  -2.2308  -2.1523  -1.6232  -1.5376
    -0.8039  -0.7263  -0.6170  -0.5389  -0.5175  -0.4542  -0.4126  -0.3256

          k = 0.4000 0.0000 0.0000 ( 27368 PWs)   bands (ev):

   -24.8163 -24.8148 -10.2490 -10.2374 -10.1284 -10.1187  -9.9649  -9.9516
    -6.3521  -6.0779  -5.4526  -5.4262  -2.0184  -1.7153  -1.1397  -0.9723
    -0.8640  -0.8603  -0.8206  -0.6656  -0.6394  -0.5546  -0.4315  -0.3196

          k = 0.4000 0.0000 0.3175 ( 27376 PWs)   bands (ev):

   -24.8110 -24.8098 -10.2165 -10.1955 -10.1924 -10.1611 -10.0776 -10.0619
    -6.0607  -5.8204  -5.5555  -5.5285  -1.9149  -1.8018  -1.5757  -1.2227
    -0.9228  -0.8559  -0.8541  -0.7035  -0.4849  -0.4067  -0.3224  -0.3137

          k = 0.4000 0.0000 0.6349 ( 27353 PWs)   bands (ev):

   -24.8024 -24.8019 -10.4582 -10.4568 -10.0999 -10.0896 -10.0612 -10.0518
    -5.8467  -5.8217  -5.4226  -5.3529  -2.3042  -2.2619  -1.4797  -1.3649
    -0.7877  -0.7448  -0.6371  -0.6149  -0.5821  -0.4167  -0.4012  -0.3884

          k = 0.4000 0.2023 0.0000 ( 27358 PWs)   bands (ev):

   -24.8161 -24.8149 -10.2844 -10.2482 -10.1195 -10.0780  -9.9636  -9.9528
    -6.3387  -6.1144  -5.4609  -5.4030  -1.9627  -1.7235  -1.2298  -0.9519
    -0.9179  -0.8828  -0.8434  -0.6507  -0.5923  -0.5175  -0.4247  -0.2615

          k = 0.4000 0.2023 0.3175 ( 27356 PWs)   bands (ev):

   -24.8109 -24.8099 -10.2329 -10.2118 -10.1820 -10.1541 -10.0701 -10.0535
    -6.0423  -5.8481  -5.5590  -5.5195  -1.8916  -1.8023  -1.6167  -1.3207
    -0.8768  -0.8483  -0.7909  -0.6386  -0.4903  -0.4092  -0.3455  -0.3047

          k = 0.4000 0.2023 0.6349 ( 27357 PWs)   bands (ev):

   -24.8023 -24.8019 -10.4556 -10.4493 -10.1134 -10.0956 -10.0568 -10.0501
    -5.8493  -5.7666  -5.4657  -5.3626  -2.2867  -2.2197  -1.5589  -1.4940
    -0.7766  -0.7327  -0.6268  -0.6044  -0.5132  -0.4357  -0.3771  -0.2953

          k = 0.4000 0.4045 0.0000 ( 27366 PWs)   bands (ev):

   -24.8157 -24.8153 -10.3049 -10.2893 -10.0746 -10.0556  -9.9601  -9.9560
    -6.2895  -6.2027  -5.4353  -5.4025  -1.8427  -1.7515  -1.2948  -1.1427
    -0.9571  -0.9406  -0.7387  -0.6023  -0.5151  -0.4851  -0.3593  -0.2612

          k = 0.4000 0.4045 0.3175 ( 27319 PWs)   bands (ev):

   -24.8106 -24.8102 -10.2453 -10.2370 -10.1666 -10.1553 -10.0534 -10.0457
    -5.9901  -5.9163  -5.5447  -5.5237  -1.8489  -1.8109  -1.6265  -1.4982
    -0.8245  -0.7936  -0.6886  -0.5976  -0.4690  -0.4430  -0.3637  -0.3002

          k = 0.4000 0.4045 0.6349 ( 27364 PWs)   bands (ev):

   -24.8022 -24.8021 -10.4461 -10.4419 -10.1239 -10.1145 -10.0509 -10.0491
    -5.7989  -5.7359  -5.4897  -5.4199  -2.2144  -2.1599  -1.7196  -1.6680
    -0.7792  -0.7451  -0.5622  -0.5380  -0.4457  -0.4313  -0.3036  -0.2543

     highest occupied level (ev):    -0.1137

!    total energy              =    -156.46779222 Ry
     estimated scf accuracy    <          1.3E-11 Ry

     The total energy is the sum of the following terms:
     one-electron contribution =     -39.16439401 Ry
     hartree contribution      =      32.38280437 Ry
     xc contribution           =     -49.06676259 Ry
     ewald contribution        =    -100.61944000 Ry

     convergence has been achieved in  12 iterations

     Writing all to output data dir ./pwscf.save/ :
     XML data file, charge density, pseudopotentials, collected wavefunctions

     init_run     :     11.32s CPU     12.48s WALL (       1 calls)
     electrons    :    282.23s CPU    284.32s WALL (       1 calls)

     Called by init_run:
     wfcinit      :      8.93s CPU      8.99s WALL (       1 calls)
     potinit      :      0.57s CPU      1.08s WALL (       1 calls)
     hinit0       :      0.82s CPU      1.36s WALL (       1 calls)

     Called by electrons:
     c_bands      :    251.59s CPU    253.17s WALL (      12 calls)
     sum_band     :     26.27s CPU     26.58s WALL (      12 calls)
     v_of_rho     :      1.68s CPU      1.77s WALL (      13 calls)
     newd         :      2.56s CPU      2.60s WALL (      13 calls)
     mix_rho      :      0.26s CPU      0.29s WALL (      12 calls)

     Called by c_bands:
     init_us_2    :      4.83s CPU      4.91s WALL (     675 calls)
     cegterg      :    228.90s CPU    230.38s WALL (     324 calls)

     Called by *egterg:
     cdiaghg      :      3.22s CPU      3.24s WALL (    1666 calls)
     h_psi        :    167.16s CPU    168.34s WALL (    1693 calls)
     s_psi        :     30.42s CPU     30.58s WALL (    1693 calls)
     g_psi        :      0.45s CPU      0.45s WALL (    1342 calls)

     Called by h_psi:
     h_psi:calbec :     27.13s CPU     27.28s WALL (    1693 calls)
     vloc_psi     :    108.98s CPU    109.87s WALL (    1693 calls)
     add_vuspsi   :     30.58s CPU     30.71s WALL (    1693 calls)

     General routines
     calbec       :     34.20s CPU     34.41s WALL (    2017 calls)
     fft          :      1.61s CPU      2.26s WALL (     167 calls)
     ffts         :      0.44s CPU      0.95s WALL (      25 calls)
     fftw         :    110.39s CPU    111.27s WALL (   65736 calls)
     interpolate  :      0.49s CPU      1.01s WALL (      13 calls)

     Parallel routines

     PWSCF        :   4m54.39s CPU   4m58.52s WALL


   This run was terminated on:  11:17:53  12Aug2024            

=------------------------------------------------------------------------------=
   JOB DONE.
=------------------------------------------------------------------------------=
