
     Program PHONON v.7.3.1 starts on 12Jul2024 at 12:21:23 

     This program is part of the open-source Quantum ESPRESSO suite
     for quantum simulation of materials; please cite
         "P. Giannozzi et al., J. Phys.:Condens. Matter 21 395502 (2009);
         "P. Giannozzi et al., J. Phys.:Condens. Matter 29 465901 (2017);
         "P. Giannozzi et al., J. Chem. Phys. 152 154105 (2020);
          URL http://www.quantum-espresso.org", 
     in publications or presentations arising from this work. More details at
     http://www.quantum-espresso.org/quote

     Parallel version (MPI), running on    24 processors

     MPI processes distributed on     1 nodes
     64823 MiB available memory on the printing compute node when the environment starts

     Waiting for input...
     Reading input from standard input

     Reading xml data from directory:

     ./pwscf.save/

     R & G space division:  proc/nbgrp/npool/nimage =      24
     Subspace diagonalization in iterative solution of the eigenvalue problem:
     a serial algorithm will be used


     IMPORTANT: XC functional enforced from input :
     Exchange-correlation= PBESOL
                           (   1   4  10   8   0   0   0)
     Any further DFT definition will be discarded
     Please, verify this is what you really want


     Parallelization info
     --------------------
     sticks:   dense  smooth     PW     G-vecs:    dense   smooth      PW
     Min         451     225     61                23736     8388    1179
     Max         453     227     63                23738     8390    1180
     Sum       10843    5421   1469               569693   201343   28297

     Using Slab Decomposition

     Reading collected, re-writing distributed wavefunctions in ./


     Dynamical matrices for ( 3, 3, 3)  uniform grid of q-points
     (   8 q-points):
       N         xq(1)         xq(2)         xq(3) 
       1   0.000000000   0.000000000   0.000000000
       2   0.000000000   0.000000000   0.494168862
       3   0.000000000   0.329528306   0.000000000
       4   0.000000000   0.329528306   0.494168862
       5   0.333333333   0.000000000   0.000000000
       6   0.333333333   0.000000000   0.494168862
       7   0.333333333   0.329528306   0.000000000
       8   0.333333333   0.329528306   0.494168862

     Number and degeneracy of irreps per q-point
       N         xq(1)         xq(2)         xq(3)   N irreps
       1   0.000000000   0.000000000   0.000000000      65
        1   1   1   1   1   1   1   1   1   1   1   1   1   1   1   1   1   1
   1   1   1   1   1   1   1   1   1   1   1   1   1   1   1   1   1   1
   1   1   1   1   1   1   1   1   1   1   2   1   1   1   1   1   1   1
   1   1   1   1   1   1   1   1   1   1   1
       2   0.000000000   0.000000000   0.494168862      66
     No degeneracy
       3   0.000000000   0.329528306   0.000000000      66
     No degeneracy
       4   0.000000000   0.329528306   0.494168862      66
     No degeneracy
       5   0.333333333   0.000000000   0.000000000      66
     No degeneracy
       6   0.333333333   0.000000000   0.494168862      66
     No degeneracy
       7   0.333333333   0.329528306   0.000000000      66
     No degeneracy
       8   0.333333333   0.329528306   0.494168862      66
     No degeneracy

     Saving dvscf to file. Distribute only q points, not irreducible representations.

     Calculation of q =    0.0000000   0.0000000   0.0000000

                                                                                

     bravais-lattice index     =            8
     lattice parameter (alat)  =      12.9772  a.u.
     unit-cell volume          =    1491.1840 (a.u.)^3
     number of atoms/cell      =           22
     number of atomic types    =            3
     kinetic-energy cut-off    =     100.0000  Ry
     charge density cut-off    =     800.0000  Ry
     convergence threshold     =      1.0E-14
     beta                      =       0.7000
     number of iterations used =            4
     Exchange-correlation= PBESOL
                           (   1   4  10   8   0   0   0)


     celldm(1)=   12.97719  celldm(2)=    1.01155  celldm(3)=    0.67453
     celldm(4)=    0.00000  celldm(5)=    0.00000  celldm(6)=    0.00000

     crystal axes: (cart. coord. in units of alat)
               a(1) = (  1.0000  0.0000  0.0000 )  
               a(2) = (  0.0000  1.0115  0.0000 )  
               a(3) = (  0.0000  0.0000  0.6745 )  

     reciprocal axes: (cart. coord. in units 2 pi/alat)
               b(1) = (  1.0000  0.0000  0.0000 )  
               b(2) = (  0.0000  0.9886  0.0000 )  
               b(3) = (  0.0000  0.0000  1.4825 )  


     Atoms inside the unit cell: 

     Cartesian axes

     site n.  atom      mass           positions (alat units)
        1  Ba    137.3270   tau(    1) = (    0.50000    0.50577    0.33727  )
        2  Ba    137.3270   tau(    2) = (    0.00000    0.00000    0.67453  )
        3  B      10.8110   tau(    3) = (    0.61784    0.24810    0.00000  )
        4  B      10.8110   tau(    4) = (    0.38216    0.76345    0.00000  )
        5  B      10.8110   tau(    5) = (    0.11784    0.25768    0.33726  )
        6  B      10.8110   tau(    6) = (    0.88216    0.75387    0.33726  )
        7  H       1.0079   tau(    7) = (    0.44403    0.29273   -0.00001  )
        8  H       1.0079   tau(    8) = (    0.55597    0.71882   -0.00001  )
        9  H       1.0079   tau(    9) = (    0.94403    0.21305    0.33728  )
       10  H       1.0079   tau(   10) = (    0.05597    0.79850    0.33728  )
       11  H       1.0079   tau(   11) = (    0.71947    0.39708    0.00000  )
       12  H       1.0079   tau(   12) = (    0.28053    0.61447    0.00000  )
       13  H       1.0079   tau(   13) = (    0.21947    0.10870    0.33726  )
       14  H       1.0079   tau(   14) = (    0.78053    0.90285    0.33726  )
       15  H       1.0079   tau(   15) = (    0.65062    0.15272    0.52653  )
       16  H       1.0079   tau(   16) = (    0.34938    0.85883    0.52653  )
       17  H       1.0079   tau(   17) = (    0.15062    0.35305    0.48527  )
       18  H       1.0079   tau(   18) = (    0.84938    0.65849    0.48527  )
       19  H       1.0079   tau(   19) = (    0.34939    0.85882    0.14801  )
       20  H       1.0079   tau(   20) = (    0.65061    0.15272    0.14801  )
       21  H       1.0079   tau(   21) = (    0.84939    0.65850    0.18926  )
       22  H       1.0079   tau(   22) = (    0.15061    0.35305    0.18926  )

     Computing dynamical matrix for 
                    q = (   0.0000000   0.0000000   0.0000000 )

      5 Sym.Ops. (with q -> -q+G )


     G cutoff = 3412.6478  (  23737 G-vectors)     FFT grid: (120,120, 80)
     G cutoff = 1706.3239  (   8389 G-vectors)  smooth grid: ( 90, 90, 60)
     number of k points=    27

     PseudoPot. # 1 for B  read from file:
     /home/mehlhorn/pseudos/b_pbesol_v1.4.uspp.F.UPF
     MD5 check sum: 369b69bef2c3aeed4453bd8b804fd6a8
     Pseudo is Ultrasoft + core correction, Zval =  3.0
     Generated by new atomic code, or converted to UPF format
     Using radial grid of  781 points,  4 beta functions with: 
                l(1) =   0
                l(2) =   0
                l(3) =   1
                l(4) =   1
     Q(r) pseudized with  8 coefficients,  rinner =    1.100   1.100   1.100


     PseudoPot. # 2 for Ba read from file:
     /home/mehlhorn/pseudos/Ba.nc.z_10.oncvpsp4.dojo.v4-sp.upf
     MD5 check sum: c10ed334bb677c0554edec7181ce9143
     Pseudo is Norm-conserving + core correction, Zval = 10.0
     Generated using ONCVPSP code by D. R. Hamann
     Using radial grid of 1938 points,  8 beta functions with: 
                l(1) =   0
                l(2) =   0
                l(3) =   1
                l(4) =   1
                l(5) =   2
                l(6) =   2
                l(7) =   3
                l(8) =   3

     PseudoPot. # 3 for H  read from file:
     /home/mehlhorn/pseudos/H_ONCV_PBEsol-1.0.upf
     MD5 check sum: 398ef8f67c0a7342c05c87c5e19ea467
     Pseudo is Norm-conserving, Zval =  1.0
     Generated using ONCVPSP code by D. R. Hamann
     Using radial grid of 1180 points,  2 beta functions with: 
                l(1) =   0
                l(2) =   0

     Mode symmetry, D_2  (222)  point group:


     Electric field:
     Dielectric constant
     Born effective charges in two ways 


     Atomic displacements:
     There are   65 irreducible representations

     Representation     1      1 modes -  To be done

     Representation     2      1 modes -  To be done

     Representation     3      1 modes -  To be done

     Representation     4      1 modes -  To be done

     Representation     5      1 modes -  To be done

     Representation     6      1 modes -  To be done

     Representation     7      1 modes -  To be done

     Representation     8      1 modes -  To be done

     Representation     9      1 modes -  To be done

     Representation    10      1 modes -  To be done

     Representation    11      1 modes -  To be done

     Representation    12      1 modes -  To be done

     Representation    13      1 modes -  To be done

     Representation    14      1 modes -  To be done

     Representation    15      1 modes -  To be done

     Representation    16      1 modes -  To be done

     Representation    17      1 modes -  To be done

     Representation    18      1 modes -  To be done

     Representation    19      1 modes -  To be done

     Representation    20      1 modes -  To be done

     Representation    21      1 modes -  To be done

     Representation    22      1 modes -  To be done

     Representation    23      1 modes -  To be done

     Representation    24      1 modes -  To be done

     Representation    25      1 modes -  To be done

     Representation    26      1 modes -  To be done

     Representation    27      1 modes -  To be done

     Representation    28      1 modes -  To be done

     Representation    29      1 modes -  To be done

     Representation    30      1 modes -  To be done

     Representation    31      1 modes -  To be done

     Representation    32      1 modes -  To be done

     Representation    33      1 modes -  To be done

     Representation    34      1 modes -  To be done

     Representation    35      1 modes -  To be done

     Representation    36      1 modes -  To be done

     Representation    37      1 modes -  To be done

     Representation    38      1 modes -  To be done

     Representation    39      1 modes -  To be done

     Representation    40      1 modes -  To be done

     Representation    41      1 modes -  To be done

     Representation    42      1 modes -  To be done

     Representation    43      1 modes -  To be done

     Representation    44      1 modes -  To be done

     Representation    45      1 modes -  To be done

     Representation    46      1 modes -  To be done

     Representation    47      2 modes -  To be done

     Representation    48      1 modes -  To be done

     Representation    49      1 modes -  To be done

     Representation    50      1 modes -  To be done

     Representation    51      1 modes -  To be done

     Representation    52      1 modes -  To be done

     Representation    53      1 modes -  To be done

     Representation    54      1 modes -  To be done

     Representation    55      1 modes -  To be done

     Representation    56      1 modes -  To be done

     Representation    57      1 modes -  To be done

     Representation    58      1 modes -  To be done

     Representation    59      1 modes -  To be done

     Representation    60      1 modes -  To be done

     Representation    61      1 modes -  To be done

     Representation    62      1 modes -  To be done

     Representation    63      1 modes -  To be done

     Representation    64      1 modes -  To be done

     Representation    65      1 modes -  To be done



     Alpha used in Ewald sum =   2.8000
     PHONON       :   3m27.11s CPU   3m31.47s WALL


     Electric Fields Calculation

      iter #   1 total cpu time :   868.7 secs   av.it.:   7.6
      thresh= 1.000E-02 alpha_mix =  0.700 |ddv_scf|^2 =  6.130E-09

      iter #   2 total cpu time :  1159.1 secs   av.it.:  16.9
      thresh= 7.829E-06 alpha_mix =  0.700 |ddv_scf|^2 =  1.029E-09

      iter #   3 total cpu time :  1437.4 secs   av.it.:  16.0
      thresh= 3.208E-06 alpha_mix =  0.700 |ddv_scf|^2 =  7.241E-11

      iter #   4 total cpu time :  1710.9 secs   av.it.:  15.8
      thresh= 8.509E-07 alpha_mix =  0.700 |ddv_scf|^2 =  1.130E-11

      iter #   5 total cpu time :  1981.0 secs   av.it.:  15.6
      thresh= 3.361E-07 alpha_mix =  0.700 |ddv_scf|^2 =  1.025E-12

      iter #   6 total cpu time :  2252.0 secs   av.it.:  15.7
      thresh= 1.012E-07 alpha_mix =  0.700 |ddv_scf|^2 =  2.439E-14

      iter #   7 total cpu time :  2527.6 secs   av.it.:  16.0
      thresh= 1.562E-08 alpha_mix =  0.700 |ddv_scf|^2 =  3.304E-15

     End of electric fields calculation

          Dielectric constant in cartesian axis 

          (       3.009232511       0.000000000       0.000000000 )
          (       0.000000000       3.061262937       0.000000000 )
          (       0.000000000       0.000000000       3.223080431 )

          Effective charges (d Force / dE) in cartesian axis without acoustic sum rule applied (asr)

           atom    1  Ba    Mean Z*:        2.63269
      Ex  (        2.45482       -0.06029        0.00000 )
      Ey  (        0.27617        2.47579        0.00000 )
      Ez  (        0.00000        0.00000        2.96746 )
           atom    2  Ba    Mean Z*:        2.63269
      Ex  (        2.45482        0.06029        0.00000 )
      Ey  (       -0.27617        2.47579        0.00000 )
      Ez  (        0.00000        0.00000        2.96746 )
           atom    3  B     Mean Z*:       -0.11842
      Ex  (       -0.13914        0.02548       -0.00000 )
      Ey  (        0.17220       -0.02064        0.00001 )
      Ez  (        0.00003       -0.00001       -0.19550 )
           atom    4  B     Mean Z*:       -0.11842
      Ex  (       -0.13914        0.02548        0.00000 )
      Ey  (        0.17220       -0.02064       -0.00001 )
      Ez  (       -0.00003        0.00001       -0.19550 )
           atom    5  B     Mean Z*:       -0.11842
      Ex  (       -0.13914       -0.02548        0.00000 )
      Ey  (       -0.17220       -0.02064        0.00001 )
      Ez  (       -0.00003       -0.00001       -0.19550 )
           atom    6  B     Mean Z*:       -0.11842
      Ex  (       -0.13914       -0.02548       -0.00000 )
      Ey  (       -0.17220       -0.02064       -0.00001 )
      Ez  (        0.00003        0.00001       -0.19550 )
           atom    7  H     Mean Z*:       -0.31060
      Ex  (       -0.43919        0.13919       -0.00003 )
      Ey  (        0.14402       -0.24192        0.00003 )
      Ez  (       -0.00003        0.00003       -0.25069 )
           atom    8  H     Mean Z*:       -0.31060
      Ex  (       -0.43919        0.13919        0.00003 )
      Ey  (        0.14402       -0.24192       -0.00003 )
      Ez  (        0.00003       -0.00003       -0.25069 )
           atom    9  H     Mean Z*:       -0.31060
      Ex  (       -0.43919       -0.13919        0.00003 )
      Ey  (       -0.14402       -0.24192        0.00003 )
      Ez  (        0.00003        0.00003       -0.25069 )
           atom   10  H     Mean Z*:       -0.31060
      Ex  (       -0.43919       -0.13919       -0.00003 )
      Ey  (       -0.14402       -0.24192       -0.00003 )
      Ez  (       -0.00003       -0.00003       -0.25069 )
           atom   11  H     Mean Z*:       -0.30961
      Ex  (       -0.24365       -0.02733       -0.00000 )
      Ey  (       -0.10830       -0.43772       -0.00000 )
      Ez  (       -0.00001       -0.00001       -0.24746 )
           atom   12  H     Mean Z*:       -0.30961
      Ex  (       -0.24365       -0.02733        0.00000 )
      Ey  (       -0.10830       -0.43772        0.00000 )
      Ez  (        0.00001        0.00001       -0.24746 )
           atom   13  H     Mean Z*:       -0.30961
      Ex  (       -0.24365        0.02733        0.00000 )
      Ey  (        0.10830       -0.43772       -0.00000 )
      Ez  (        0.00001       -0.00001       -0.24746 )
           atom   14  H     Mean Z*:       -0.30961
      Ex  (       -0.24365        0.02733       -0.00000 )
      Ey  (        0.10830       -0.43772        0.00000 )
      Ez  (       -0.00001        0.00001       -0.24746 )
           atom   15  H     Mean Z*:       -0.28860
      Ex  (       -0.20285        0.15245        0.06761 )
      Ey  (        0.10585       -0.26813       -0.09907 )
      Ez  (        0.02908       -0.11374       -0.39484 )
           atom   16  H     Mean Z*:       -0.28860
      Ex  (       -0.20285        0.15245       -0.06761 )
      Ey  (        0.10585       -0.26813        0.09907 )
      Ez  (       -0.02908        0.11374       -0.39484 )
           atom   17  H     Mean Z*:       -0.28860
      Ex  (       -0.20285       -0.15245       -0.06761 )
      Ey  (       -0.10585       -0.26813       -0.09907 )
      Ez  (       -0.02908       -0.11374       -0.39484 )
           atom   18  H     Mean Z*:       -0.28860
      Ex  (       -0.20285       -0.15245        0.06761 )
      Ey  (       -0.10585       -0.26813        0.09907 )
      Ez  (        0.02908        0.11374       -0.39484 )
           atom   19  H     Mean Z*:       -0.28859
      Ex  (       -0.20282        0.15242        0.06756 )
      Ey  (        0.10582       -0.26811       -0.09905 )
      Ez  (        0.02906       -0.11373       -0.39485 )
           atom   20  H     Mean Z*:       -0.28859
      Ex  (       -0.20282        0.15242       -0.06756 )
      Ey  (        0.10582       -0.26811        0.09905 )
      Ez  (       -0.02906        0.11373       -0.39485 )
           atom   21  H     Mean Z*:       -0.28859
      Ex  (       -0.20282       -0.15242       -0.06756 )
      Ey  (       -0.10582       -0.26811       -0.09905 )
      Ez  (       -0.02906       -0.11373       -0.39485 )
           atom   22  H     Mean Z*:       -0.28859
      Ex  (       -0.20282       -0.15242        0.06756 )
      Ey  (       -0.10582       -0.26811        0.09905 )
      Ez  (        0.02906        0.11373       -0.39485 )

          Effective charges Sum: Mean:        0.00205
             -0.00097        0.00000        0.00000
              0.00000        0.00550        0.00000
              0.00000        0.00000        0.00163

          Effective charges (d Force / dE) in cartesian axis with asr applied: 
           atom    1  Ba    Mean Z*:        2.63260
      E*x (        2.45486       -0.06029        0.00000 )
      E*y (        0.27617        2.47554        0.00000 )
      E*z (       -0.00000        0.00000        2.96739 )
           atom    2  Ba    Mean Z*:        2.63260
      E*x (        2.45486        0.06029        0.00000 )
      E*y (       -0.27617        2.47554        0.00000 )
      E*z (       -0.00000        0.00000        2.96739 )
           atom    3  B     Mean Z*:       -0.11852
      E*x (       -0.13909        0.02548       -0.00000 )
      E*y (        0.17220       -0.02089        0.00001 )
      E*z (        0.00003       -0.00001       -0.19557 )
           atom    4  B     Mean Z*:       -0.11852
      E*x (       -0.13909        0.02548        0.00000 )
      E*y (        0.17220       -0.02089       -0.00001 )
      E*z (       -0.00003        0.00001       -0.19557 )
           atom    5  B     Mean Z*:       -0.11852
      E*x (       -0.13909       -0.02548        0.00000 )
      E*y (       -0.17220       -0.02089        0.00001 )
      E*z (       -0.00003       -0.00001       -0.19557 )
           atom    6  B     Mean Z*:       -0.11852
      E*x (       -0.13909       -0.02548       -0.00000 )
      E*y (       -0.17220       -0.02089       -0.00001 )
      E*z (        0.00003        0.00001       -0.19557 )
           atom    7  H     Mean Z*:       -0.31069
      E*x (       -0.43914        0.13919       -0.00003 )
      E*y (        0.14402       -0.24217        0.00003 )
      E*z (       -0.00003        0.00003       -0.25076 )
           atom    8  H     Mean Z*:       -0.31069
      E*x (       -0.43914        0.13919        0.00003 )
      E*y (        0.14402       -0.24217       -0.00003 )
      E*z (        0.00003       -0.00003       -0.25076 )
           atom    9  H     Mean Z*:       -0.31069
      E*x (       -0.43914       -0.13919        0.00003 )
      E*y (       -0.14402       -0.24217        0.00003 )
      E*z (        0.00003        0.00003       -0.25076 )
           atom   10  H     Mean Z*:       -0.31069
      E*x (       -0.43914       -0.13919       -0.00003 )
      E*y (       -0.14402       -0.24217       -0.00003 )
      E*z (       -0.00003       -0.00003       -0.25076 )
           atom   11  H     Mean Z*:       -0.30970
      E*x (       -0.24361       -0.02733       -0.00000 )
      E*y (       -0.10830       -0.43797       -0.00000 )
      E*z (       -0.00001       -0.00001       -0.24753 )
           atom   12  H     Mean Z*:       -0.30970
      E*x (       -0.24361       -0.02733        0.00000 )
      E*y (       -0.10830       -0.43797        0.00000 )
      E*z (        0.00001        0.00001       -0.24753 )
           atom   13  H     Mean Z*:       -0.30970
      E*x (       -0.24361        0.02733        0.00000 )
      E*y (        0.10830       -0.43797       -0.00000 )
      E*z (        0.00001       -0.00001       -0.24753 )
           atom   14  H     Mean Z*:       -0.30970
      E*x (       -0.24361        0.02733       -0.00000 )
      E*y (        0.10830       -0.43797        0.00000 )
      E*z (       -0.00001        0.00001       -0.24753 )
           atom   15  H     Mean Z*:       -0.28870
      E*x (       -0.20280        0.15245        0.06761 )
      E*y (        0.10585       -0.26838       -0.09907 )
      E*z (        0.02908       -0.11374       -0.39491 )
           atom   16  H     Mean Z*:       -0.28870
      E*x (       -0.20280        0.15245       -0.06761 )
      E*y (        0.10585       -0.26838        0.09907 )
      E*z (       -0.02908        0.11374       -0.39491 )
           atom   17  H     Mean Z*:       -0.28870
      E*x (       -0.20280       -0.15245       -0.06761 )
      E*y (       -0.10585       -0.26838       -0.09907 )
      E*z (       -0.02908       -0.11374       -0.39491 )
           atom   18  H     Mean Z*:       -0.28870
      E*x (       -0.20280       -0.15245        0.06761 )
      E*y (       -0.10585       -0.26838        0.09907 )
      E*z (        0.02908        0.11374       -0.39491 )
           atom   19  H     Mean Z*:       -0.28869
      E*x (       -0.20278        0.15242        0.06756 )
      E*y (        0.10582       -0.26836       -0.09905 )
      E*z (        0.02906       -0.11373       -0.39492 )
           atom   20  H     Mean Z*:       -0.28869
      E*x (       -0.20278        0.15242       -0.06756 )
      E*y (        0.10582       -0.26836        0.09905 )
      E*z (       -0.02906        0.11373       -0.39492 )
           atom   21  H     Mean Z*:       -0.28869
      E*x (       -0.20278       -0.15242       -0.06756 )
      E*y (       -0.10582       -0.26836       -0.09905 )
      E*z (       -0.02906       -0.11373       -0.39492 )
           atom   22  H     Mean Z*:       -0.28869
      E*x (       -0.20278       -0.15242        0.06756 )
      E*y (       -0.10582       -0.26836        0.09905 )
      E*z (        0.02906        0.11373       -0.39492 )


     Representation #   1 mode #   1

     Self-consistent Calculation

      iter #   1 total cpu time :  5109.3 secs   av.it.:   3.0
      thresh= 1.000E-02 alpha_mix =  0.700 |ddv_scf|^2 =  1.598E-09

      iter #   2 total cpu time :  5199.9 secs   av.it.:  15.6
      thresh= 3.998E-06 alpha_mix =  0.700 |ddv_scf|^2 =  3.246E-10

      iter #   3 total cpu time :  5288.9 secs   av.it.:  15.1
      thresh= 1.802E-06 alpha_mix =  0.700 |ddv_scf|^2 =  2.568E-12

      iter #   4 total cpu time :  5378.8 secs   av.it.:  15.6
      thresh= 1.602E-07 alpha_mix =  0.700 |ddv_scf|^2 =  4.596E-14

      iter #   5 total cpu time :  5469.5 secs   av.it.:  15.9
      thresh= 2.144E-08 alpha_mix =  0.700 |ddv_scf|^2 =  1.953E-15

     End of self-consistent calculation

     Convergence has been achieved 


     Representation #   2 mode #   2

     Self-consistent Calculation

      iter #   1 total cpu time :  5534.2 secs   av.it.:   3.0
      thresh= 1.000E-02 alpha_mix =  0.700 |ddv_scf|^2 =  1.357E-09

      iter #   2 total cpu time :  5626.9 secs   av.it.:  15.9
      thresh= 3.684E-06 alpha_mix =  0.700 |ddv_scf|^2 =  3.704E-10

      iter #   3 total cpu time :  5716.7 secs   av.it.:  15.4
      thresh= 1.924E-06 alpha_mix =  0.700 |ddv_scf|^2 =  2.902E-12

      iter #   4 total cpu time :  5808.5 secs   av.it.:  15.9
      thresh= 1.703E-07 alpha_mix =  0.700 |ddv_scf|^2 =  1.011E-13

      iter #   5 total cpu time :  5899.5 secs   av.it.:  15.9
      thresh= 3.180E-08 alpha_mix =  0.700 |ddv_scf|^2 =  4.599E-15

     End of self-consistent calculation

     Convergence has been achieved 


     Representation #   3 mode #   3

     Self-consistent Calculation

      iter #   1 total cpu time :  5964.0 secs   av.it.:   3.0
      thresh= 1.000E-02 alpha_mix =  0.700 |ddv_scf|^2 =  5.417E-10

      iter #   2 total cpu time :  6056.2 secs   av.it.:  15.9
      thresh= 2.327E-06 alpha_mix =  0.700 |ddv_scf|^2 =  4.148E-11

      iter #   3 total cpu time :  6147.8 secs   av.it.:  16.0
      thresh= 6.441E-07 alpha_mix =  0.700 |ddv_scf|^2 =  5.400E-12

      iter #   4 total cpu time :  6238.1 secs   av.it.:  15.9
      thresh= 2.324E-07 alpha_mix =  0.700 |ddv_scf|^2 =  1.059E-13

      iter #   5 total cpu time :  6328.8 secs   av.it.:  15.8
      thresh= 3.255E-08 alpha_mix =  0.700 |ddv_scf|^2 =  3.897E-15

     End of self-consistent calculation

     Convergence has been achieved 


     Representation #   4 mode #   4

     Self-consistent Calculation

      iter #   1 total cpu time :  6400.5 secs   av.it.:   4.9
      thresh= 1.000E-02 alpha_mix =  0.700 |ddv_scf|^2 =  1.103E-08

      iter #   2 total cpu time :  6492.0 secs   av.it.:  15.9
      thresh= 1.050E-05 alpha_mix =  0.700 |ddv_scf|^2 =  2.217E-09

      iter #   3 total cpu time :  6580.5 secs   av.it.:  15.1
      thresh= 4.708E-06 alpha_mix =  0.700 |ddv_scf|^2 =  1.830E-11

      iter #   4 total cpu time :  6670.4 secs   av.it.:  15.6
      thresh= 4.277E-07 alpha_mix =  0.700 |ddv_scf|^2 =  1.290E-12

      iter #   5 total cpu time :  6760.1 secs   av.it.:  15.7
      thresh= 1.136E-07 alpha_mix =  0.700 |ddv_scf|^2 =  1.584E-14

      iter #   6 total cpu time :  6850.7 secs   av.it.:  15.9
      thresh= 1.259E-08 alpha_mix =  0.700 |ddv_scf|^2 =  1.848E-16

     End of self-consistent calculation

     Convergence has been achieved 


     Representation #   5 mode #   5

     Self-consistent Calculation

      iter #   1 total cpu time :  6951.2 secs   av.it.:   6.5
      thresh= 1.000E-02 alpha_mix =  0.700 |ddv_scf|^2 =  5.524E-08

      iter #   2 total cpu time :  7038.8 secs   av.it.:  15.3
      thresh= 2.350E-05 alpha_mix =  0.700 |ddv_scf|^2 =  1.466E-08

      iter #   3 total cpu time :  7124.2 secs   av.it.:  14.6
      thresh= 1.211E-05 alpha_mix =  0.700 |ddv_scf|^2 =  3.116E-11

      iter #   4 total cpu time :  7211.0 secs   av.it.:  15.3
      thresh= 5.582E-07 alpha_mix =  0.700 |ddv_scf|^2 =  1.033E-12

      iter #   5 total cpu time :  7297.6 secs   av.it.:  15.0
      thresh= 1.016E-07 alpha_mix =  0.700 |ddv_scf|^2 =  1.060E-14

      iter #   6 total cpu time :  7384.0 secs   av.it.:  14.7
      thresh= 1.029E-08 alpha_mix =  0.700 |ddv_scf|^2 =  1.995E-16

     End of self-consistent calculation

     Convergence has been achieved 


     Representation #   6 mode #   6

     Self-consistent Calculation

      iter #   1 total cpu time :  7454.4 secs   av.it.:   3.0
      thresh= 1.000E-02 alpha_mix =  0.700 |ddv_scf|^2 =  1.625E-09

      iter #   2 total cpu time :  7546.5 secs   av.it.:  15.9
      thresh= 4.031E-06 alpha_mix =  0.700 |ddv_scf|^2 =  4.442E-10

      iter #   3 total cpu time :  7636.5 secs   av.it.:  15.5
      thresh= 2.108E-06 alpha_mix =  0.700 |ddv_scf|^2 =  4.386E-12

      iter #   4 total cpu time :  7726.6 secs   av.it.:  15.7
      thresh= 2.094E-07 alpha_mix =  0.700 |ddv_scf|^2 =  2.101E-13

      iter #   5 total cpu time :  7816.6 secs   av.it.:  15.7
      thresh= 4.583E-08 alpha_mix =  0.700 |ddv_scf|^2 =  5.143E-15

     End of self-consistent calculation

     Convergence has been achieved 


     Representation #   7 mode #   7

     Self-consistent Calculation

      iter #   1 total cpu time :  7880.2 secs   av.it.:   3.0
      thresh= 1.000E-02 alpha_mix =  0.700 |ddv_scf|^2 =  1.335E-09

      iter #   2 total cpu time :  7969.8 secs   av.it.:  15.5
      thresh= 3.654E-06 alpha_mix =  0.700 |ddv_scf|^2 =  1.127E-10

      iter #   3 total cpu time :  8059.9 secs   av.it.:  15.7
      thresh= 1.062E-06 alpha_mix =  0.700 |ddv_scf|^2 =  1.301E-12

      iter #   4 total cpu time :  8151.5 secs   av.it.:  15.9
      thresh= 1.141E-07 alpha_mix =  0.700 |ddv_scf|^2 =  1.663E-13

      iter #   5 total cpu time :  8241.9 secs   av.it.:  15.9
      thresh= 4.078E-08 alpha_mix =  0.700 |ddv_scf|^2 =  5.602E-15

     End of self-consistent calculation

     Convergence has been achieved 


     Representation #   8 mode #   8

     Self-consistent Calculation

      iter #   1 total cpu time :  8304.8 secs   av.it.:   3.0
      thresh= 1.000E-02 alpha_mix =  0.700 |ddv_scf|^2 =  7.637E-10

      iter #   2 total cpu time :  8395.3 secs   av.it.:  15.7
      thresh= 2.763E-06 alpha_mix =  0.700 |ddv_scf|^2 =  5.848E-11

      iter #   3 total cpu time :  8486.0 secs   av.it.:  15.9
      thresh= 7.647E-07 alpha_mix =  0.700 |ddv_scf|^2 =  1.966E-12

      iter #   4 total cpu time :  8577.3 secs   av.it.:  15.9
      thresh= 1.402E-07 alpha_mix =  0.700 |ddv_scf|^2 =  1.638E-13

      iter #   5 total cpu time :  8667.7 secs   av.it.:  15.8
      thresh= 4.047E-08 alpha_mix =  0.700 |ddv_scf|^2 =  5.831E-15

     End of self-consistent calculation

     Convergence has been achieved 


     Representation #   9 mode #   9

     Self-consistent Calculation

      iter #   1 total cpu time :  8738.5 secs   av.it.:   4.6
      thresh= 1.000E-02 alpha_mix =  0.700 |ddv_scf|^2 =  7.564E-09

      iter #   2 total cpu time :  8832.0 secs   av.it.:  16.0
      thresh= 8.697E-06 alpha_mix =  0.700 |ddv_scf|^2 =  1.056E-09

      iter #   3 total cpu time :  8922.0 secs   av.it.:  15.6
      thresh= 3.249E-06 alpha_mix =  0.700 |ddv_scf|^2 =  1.947E-11

      iter #   4 total cpu time :  9012.2 secs   av.it.:  15.8
      thresh= 4.412E-07 alpha_mix =  0.700 |ddv_scf|^2 =  1.538E-12

      iter #   5 total cpu time :  9102.4 secs   av.it.:  15.8
      thresh= 1.240E-07 alpha_mix =  0.700 |ddv_scf|^2 =  2.650E-14

      iter #   6 total cpu time :  9193.3 secs   av.it.:  15.9
      thresh= 1.628E-08 alpha_mix =  0.700 |ddv_scf|^2 =  2.094E-16

     End of self-consistent calculation

     Convergence has been achieved 


     Representation #  10 mode #  10

     Self-consistent Calculation

      iter #   1 total cpu time :  9275.4 secs   av.it.:   3.0
      thresh= 1.000E-02 alpha_mix =  0.700 |ddv_scf|^2 =  1.070E-09

      iter #   2 total cpu time :  9368.1 secs   av.it.:  15.9
      thresh= 3.270E-06 alpha_mix =  0.700 |ddv_scf|^2 =  1.136E-10

      iter #   3 total cpu time :  9460.9 secs   av.it.:  15.9
      thresh= 1.066E-06 alpha_mix =  0.700 |ddv_scf|^2 =  4.326E-12

      iter #   4 total cpu time :  9552.4 secs   av.it.:  15.9
      thresh= 2.080E-07 alpha_mix =  0.700 |ddv_scf|^2 =  1.782E-13

      iter #   5 total cpu time :  9642.9 secs   av.it.:  15.7
      thresh= 4.221E-08 alpha_mix =  0.700 |ddv_scf|^2 =  6.531E-15

     End of self-consistent calculation

     Convergence has been achieved 


     Representation #  11 mode #  11

     Self-consistent Calculation

      iter #   1 total cpu time :  9707.8 secs   av.it.:   3.0
      thresh= 1.000E-02 alpha_mix =  0.700 |ddv_scf|^2 =  7.965E-10

      iter #   2 total cpu time :  9800.2 secs   av.it.:  16.0
      thresh= 2.822E-06 alpha_mix =  0.700 |ddv_scf|^2 =  1.388E-10

      iter #   3 total cpu time :  9890.4 secs   av.it.:  15.7
      thresh= 1.178E-06 alpha_mix =  0.700 |ddv_scf|^2 =  6.352E-12

      iter #   4 total cpu time :  9980.8 secs   av.it.:  15.8
      thresh= 2.520E-07 alpha_mix =  0.700 |ddv_scf|^2 =  1.013E-13

      iter #   5 total cpu time : 10070.4 secs   av.it.:  15.5
      thresh= 3.183E-08 alpha_mix =  0.700 |ddv_scf|^2 =  4.445E-15

     End of self-consistent calculation

     Convergence has been achieved 


     Representation #  12 mode #  12

     Self-consistent Calculation

      iter #   1 total cpu time : 10134.4 secs   av.it.:   3.0
      thresh= 1.000E-02 alpha_mix =  0.700 |ddv_scf|^2 =  7.528E-10

      iter #   2 total cpu time : 10227.3 secs   av.it.:  15.9
      thresh= 2.744E-06 alpha_mix =  0.700 |ddv_scf|^2 =  1.130E-10

      iter #   3 total cpu time : 10318.7 secs   av.it.:  15.9
      thresh= 1.063E-06 alpha_mix =  0.700 |ddv_scf|^2 =  4.355E-12

      iter #   4 total cpu time : 10410.6 secs   av.it.:  15.9
      thresh= 2.087E-07 alpha_mix =  0.700 |ddv_scf|^2 =  2.665E-13

      iter #   5 total cpu time : 10501.5 secs   av.it.:  15.5
      thresh= 5.162E-08 alpha_mix =  0.700 |ddv_scf|^2 =  5.876E-15

     End of self-consistent calculation

     Convergence has been achieved 


     Representation #  13 mode #  13

     Self-consistent Calculation

      iter #   1 total cpu time : 10567.9 secs   av.it.:   3.5
      thresh= 1.000E-02 alpha_mix =  0.700 |ddv_scf|^2 =  1.739E-09

      iter #   2 total cpu time : 10659.5 secs   av.it.:  15.9
      thresh= 4.171E-06 alpha_mix =  0.700 |ddv_scf|^2 =  5.572E-10

      iter #   3 total cpu time : 10748.5 secs   av.it.:  15.1
      thresh= 2.360E-06 alpha_mix =  0.700 |ddv_scf|^2 =  1.794E-12

      iter #   4 total cpu time : 10839.0 secs   av.it.:  15.7
      thresh= 1.339E-07 alpha_mix =  0.700 |ddv_scf|^2 =  5.963E-14

      iter #   5 total cpu time : 10929.8 secs   av.it.:  15.8
      thresh= 2.442E-08 alpha_mix =  0.700 |ddv_scf|^2 =  2.859E-15

     End of self-consistent calculation

     Convergence has been achieved 


     Representation #  14 mode #  14

     Self-consistent Calculation

      iter #   1 total cpu time : 11000.0 secs   av.it.:   4.0
      thresh= 1.000E-02 alpha_mix =  0.700 |ddv_scf|^2 =  9.197E-09

      iter #   2 total cpu time : 11090.2 secs   av.it.:  15.6
      thresh= 9.590E-06 alpha_mix =  0.700 |ddv_scf|^2 =  1.111E-09

      iter #   3 total cpu time : 11178.8 secs   av.it.:  15.1
      thresh= 3.333E-06 alpha_mix =  0.700 |ddv_scf|^2 =  1.055E-11

      iter #   4 total cpu time : 11268.9 secs   av.it.:  15.9
      thresh= 3.248E-07 alpha_mix =  0.700 |ddv_scf|^2 =  1.522E-12

      iter #   5 total cpu time : 11359.3 secs   av.it.:  15.7
      thresh= 1.234E-07 alpha_mix =  0.700 |ddv_scf|^2 =  6.945E-14

      iter #   6 total cpu time : 11449.7 secs   av.it.:  15.4
      thresh= 2.635E-08 alpha_mix =  0.700 |ddv_scf|^2 =  1.874E-16

     End of self-consistent calculation

     Convergence has been achieved 


     Representation #  15 mode #  15

     Self-consistent Calculation

      iter #   1 total cpu time : 11532.7 secs   av.it.:   3.0
      thresh= 1.000E-02 alpha_mix =  0.700 |ddv_scf|^2 =  1.461E-09

      iter #   2 total cpu time : 11628.0 secs   av.it.:  15.9
      thresh= 3.822E-06 alpha_mix =  0.700 |ddv_scf|^2 =  2.624E-10

      iter #   3 total cpu time : 11721.9 secs   av.it.:  15.6
      thresh= 1.620E-06 alpha_mix =  0.700 |ddv_scf|^2 =  3.416E-12

      iter #   4 total cpu time : 11817.2 secs   av.it.:  15.9
      thresh= 1.848E-07 alpha_mix =  0.700 |ddv_scf|^2 =  1.317E-13

      iter #   5 total cpu time : 11912.8 secs   av.it.:  15.9
      thresh= 3.629E-08 alpha_mix =  0.700 |ddv_scf|^2 =  5.351E-15

     End of self-consistent calculation

     Convergence has been achieved 


     Representation #  16 mode #  16

     Self-consistent Calculation

      iter #   1 total cpu time : 11979.4 secs   av.it.:   3.0
      thresh= 1.000E-02 alpha_mix =  0.700 |ddv_scf|^2 =  1.602E-09

      iter #   2 total cpu time : 12072.0 secs   av.it.:  15.9
      thresh= 4.003E-06 alpha_mix =  0.700 |ddv_scf|^2 =  5.305E-10

      iter #   3 total cpu time : 12161.0 secs   av.it.:  15.1
      thresh= 2.303E-06 alpha_mix =  0.700 |ddv_scf|^2 =  1.685E-12

      iter #   4 total cpu time : 12252.9 secs   av.it.:  15.9
      thresh= 1.298E-07 alpha_mix =  0.700 |ddv_scf|^2 =  4.693E-14

      iter #   5 total cpu time : 12343.0 secs   av.it.:  15.6
      thresh= 2.166E-08 alpha_mix =  0.700 |ddv_scf|^2 =  3.041E-15

     End of self-consistent calculation

     Convergence has been achieved 


     Representation #  17 mode #  17

     Self-consistent Calculation

      iter #   1 total cpu time : 12414.4 secs   av.it.:   4.8
      thresh= 1.000E-02 alpha_mix =  0.700 |ddv_scf|^2 =  1.385E-08

      iter #   2 total cpu time : 12506.8 secs   av.it.:  15.9
      thresh= 1.177E-05 alpha_mix =  0.700 |ddv_scf|^2 =  5.986E-09

      iter #   3 total cpu time : 12595.0 secs   av.it.:  14.9
      thresh= 7.737E-06 alpha_mix =  0.700 |ddv_scf|^2 =  9.250E-11

      iter #   4 total cpu time : 12684.5 secs   av.it.:  15.2
      thresh= 9.618E-07 alpha_mix =  0.700 |ddv_scf|^2 =  6.143E-12

      iter #   5 total cpu time : 12774.3 secs   av.it.:  15.4
      thresh= 2.478E-07 alpha_mix =  0.700 |ddv_scf|^2 =  4.747E-13

      iter #   6 total cpu time : 12863.8 secs   av.it.:  15.0
      thresh= 6.889E-08 alpha_mix =  0.700 |ddv_scf|^2 =  1.071E-14

      iter #   7 total cpu time : 12956.3 secs   av.it.:  15.9
      thresh= 1.035E-08 alpha_mix =  0.700 |ddv_scf|^2 =  1.910E-15

     End of self-consistent calculation

     Convergence has been achieved 


     Representation #  18 mode #  18

     Self-consistent Calculation

      iter #   1 total cpu time : 13039.6 secs   av.it.:   3.2
      thresh= 1.000E-02 alpha_mix =  0.700 |ddv_scf|^2 =  3.648E-09

      iter #   2 total cpu time : 13130.3 secs   av.it.:  15.6
      thresh= 6.040E-06 alpha_mix =  0.700 |ddv_scf|^2 =  2.058E-09

      iter #   3 total cpu time : 13216.8 secs   av.it.:  14.9
      thresh= 4.537E-06 alpha_mix =  0.700 |ddv_scf|^2 =  3.221E-12

      iter #   4 total cpu time : 13308.4 secs   av.it.:  15.9
      thresh= 1.795E-07 alpha_mix =  0.700 |ddv_scf|^2 =  5.290E-13

      iter #   5 total cpu time : 13397.6 secs   av.it.:  15.1
      thresh= 7.273E-08 alpha_mix =  0.700 |ddv_scf|^2 =  5.686E-14

      iter #   6 total cpu time : 13485.3 secs   av.it.:  15.0
      thresh= 2.385E-08 alpha_mix =  0.700 |ddv_scf|^2 =  3.290E-15

     End of self-consistent calculation

     Convergence has been achieved 


     Representation #  19 mode #  19

     Self-consistent Calculation

      iter #   1 total cpu time : 13550.1 secs   av.it.:   3.0
      thresh= 1.000E-02 alpha_mix =  0.700 |ddv_scf|^2 =  9.644E-10

      iter #   2 total cpu time : 13642.5 secs   av.it.:  15.9
      thresh= 3.106E-06 alpha_mix =  0.700 |ddv_scf|^2 =  2.068E-10

      iter #   3 total cpu time : 13733.1 secs   av.it.:  15.7
      thresh= 1.438E-06 alpha_mix =  0.700 |ddv_scf|^2 =  1.117E-11

      iter #   4 total cpu time : 13822.5 secs   av.it.:  15.0
      thresh= 3.342E-07 alpha_mix =  0.700 |ddv_scf|^2 =  5.813E-13

      iter #   5 total cpu time : 13913.8 secs   av.it.:  15.6
      thresh= 7.625E-08 alpha_mix =  0.700 |ddv_scf|^2 =  1.211E-14

      iter #   6 total cpu time : 14005.9 secs   av.it.:  15.9
      thresh= 1.100E-08 alpha_mix =  0.700 |ddv_scf|^2 =  2.110E-15

     End of self-consistent calculation

     Convergence has been achieved 


     Representation #  20 mode #  20

     Self-consistent Calculation

      iter #   1 total cpu time : 14072.2 secs   av.it.:   3.9
      thresh= 1.000E-02 alpha_mix =  0.700 |ddv_scf|^2 =  5.923E-09

      iter #   2 total cpu time : 14189.8 secs   av.it.:  15.4
      thresh= 7.696E-06 alpha_mix =  0.700 |ddv_scf|^2 =  3.511E-09

      iter #   3 total cpu time : 14277.3 secs   av.it.:  14.8
      thresh= 5.926E-06 alpha_mix =  0.700 |ddv_scf|^2 =  1.074E-11

      iter #   4 total cpu time : 14364.8 secs   av.it.:  14.9
      thresh= 3.277E-07 alpha_mix =  0.700 |ddv_scf|^2 =  9.503E-13

      iter #   5 total cpu time : 14454.4 secs   av.it.:  15.1
      thresh= 9.749E-08 alpha_mix =  0.700 |ddv_scf|^2 =  8.040E-14

      iter #   6 total cpu time : 14541.5 secs   av.it.:  14.9
      thresh= 2.836E-08 alpha_mix =  0.700 |ddv_scf|^2 =  6.797E-15

     End of self-consistent calculation

     Convergence has been achieved 


     Representation #  21 mode #  21

     Self-consistent Calculation

      iter #   1 total cpu time : 14606.9 secs   av.it.:   3.0
      thresh= 1.000E-02 alpha_mix =  0.700 |ddv_scf|^2 =  6.736E-09

      iter #   2 total cpu time : 14697.0 secs   av.it.:  15.4
      thresh= 8.207E-06 alpha_mix =  0.700 |ddv_scf|^2 =  4.567E-09

      iter #   3 total cpu time : 14782.8 secs   av.it.:  14.9
      thresh= 6.758E-06 alpha_mix =  0.700 |ddv_scf|^2 =  4.555E-12

      iter #   4 total cpu time : 14874.7 secs   av.it.:  15.9
      thresh= 2.134E-07 alpha_mix =  0.700 |ddv_scf|^2 =  7.835E-13

      iter #   5 total cpu time : 14965.4 secs   av.it.:  15.7
      thresh= 8.851E-08 alpha_mix =  0.700 |ddv_scf|^2 =  7.450E-14

      iter #   6 total cpu time : 15055.0 secs   av.it.:  15.2
      thresh= 2.729E-08 alpha_mix =  0.700 |ddv_scf|^2 =  3.112E-15

     End of self-consistent calculation

     Convergence has been achieved 


     Representation #  22 mode #  22

     Self-consistent Calculation

      iter #   1 total cpu time : 15135.4 secs   av.it.:   6.5
      thresh= 1.000E-02 alpha_mix =  0.700 |ddv_scf|^2 =  3.819E-08

      iter #   2 total cpu time : 15224.1 secs   av.it.:  15.3
      thresh= 1.954E-05 alpha_mix =  0.700 |ddv_scf|^2 =  6.104E-09

      iter #   3 total cpu time : 15312.6 secs   av.it.:  15.1
      thresh= 7.813E-06 alpha_mix =  0.700 |ddv_scf|^2 =  2.953E-11

      iter #   4 total cpu time : 15400.2 secs   av.it.:  15.1
      thresh= 5.434E-07 alpha_mix =  0.700 |ddv_scf|^2 =  2.245E-13

      iter #   5 total cpu time : 15488.9 secs   av.it.:  15.4
      thresh= 4.738E-08 alpha_mix =  0.700 |ddv_scf|^2 =  7.859E-15

     End of self-consistent calculation

     Convergence has been achieved 


     Representation #  23 mode #  23

     Self-consistent Calculation

      iter #   1 total cpu time : 15558.8 secs   av.it.:   3.0
      thresh= 1.000E-02 alpha_mix =  0.700 |ddv_scf|^2 =  4.670E-09

      iter #   2 total cpu time : 15648.3 secs   av.it.:  15.0
      thresh= 6.834E-06 alpha_mix =  0.700 |ddv_scf|^2 =  2.456E-09

      iter #   3 total cpu time : 15734.6 secs   av.it.:  14.8
      thresh= 4.956E-06 alpha_mix =  0.700 |ddv_scf|^2 =  1.562E-11

      iter #   4 total cpu time : 15822.8 secs   av.it.:  15.0
      thresh= 3.952E-07 alpha_mix =  0.700 |ddv_scf|^2 =  1.418E-12

      iter #   5 total cpu time : 15910.6 secs   av.it.:  14.9
      thresh= 1.191E-07 alpha_mix =  0.700 |ddv_scf|^2 =  2.466E-14

      iter #   6 total cpu time : 16001.9 secs   av.it.:  15.9
      thresh= 1.570E-08 alpha_mix =  0.700 |ddv_scf|^2 =  3.207E-15

     End of self-consistent calculation

     Convergence has been achieved 


     Representation #  24 mode #  24

     Self-consistent Calculation

      iter #   1 total cpu time : 16066.3 secs   av.it.:   3.0
      thresh= 1.000E-02 alpha_mix =  0.700 |ddv_scf|^2 =  7.071E-10

      iter #   2 total cpu time : 16157.9 secs   av.it.:  15.7
      thresh= 2.659E-06 alpha_mix =  0.700 |ddv_scf|^2 =  1.011E-10

      iter #   3 total cpu time : 16249.3 secs   av.it.:  15.6
      thresh= 1.005E-06 alpha_mix =  0.700 |ddv_scf|^2 =  9.317E-12

      iter #   4 total cpu time : 16338.0 secs   av.it.:  15.0
      thresh= 3.052E-07 alpha_mix =  0.700 |ddv_scf|^2 =  6.920E-13

      iter #   5 total cpu time : 16427.6 secs   av.it.:  15.0
      thresh= 8.319E-08 alpha_mix =  0.700 |ddv_scf|^2 =  1.152E-14

      iter #   6 total cpu time : 16517.9 secs   av.it.:  15.2
      thresh= 1.074E-08 alpha_mix =  0.700 |ddv_scf|^2 =  1.099E-15

     End of self-consistent calculation

     Convergence has been achieved 


     Representation #  25 mode #  25

     Self-consistent Calculation

      iter #   1 total cpu time : 16583.8 secs   av.it.:   3.1
      thresh= 1.000E-02 alpha_mix =  0.700 |ddv_scf|^2 =  5.232E-09

      iter #   2 total cpu time : 16675.1 secs   av.it.:  15.7
      thresh= 7.234E-06 alpha_mix =  0.700 |ddv_scf|^2 =  2.865E-09

      iter #   3 total cpu time : 16762.8 secs   av.it.:  14.9
      thresh= 5.352E-06 alpha_mix =  0.700 |ddv_scf|^2 =  1.930E-11

      iter #   4 total cpu time : 16851.6 secs   av.it.:  14.9
      thresh= 4.393E-07 alpha_mix =  0.700 |ddv_scf|^2 =  1.256E-12

      iter #   5 total cpu time : 16940.9 secs   av.it.:  15.2
      thresh= 1.121E-07 alpha_mix =  0.700 |ddv_scf|^2 =  4.465E-14

      iter #   6 total cpu time : 17030.7 secs   av.it.:  15.5
      thresh= 2.113E-08 alpha_mix =  0.700 |ddv_scf|^2 =  7.590E-15

     End of self-consistent calculation

     Convergence has been achieved 


     Representation #  26 mode #  26

     Self-consistent Calculation

      iter #   1 total cpu time : 17095.3 secs   av.it.:   3.0
      thresh= 1.000E-02 alpha_mix =  0.700 |ddv_scf|^2 =  4.312E-09

      iter #   2 total cpu time : 17183.3 secs   av.it.:  15.0
      thresh= 6.567E-06 alpha_mix =  0.700 |ddv_scf|^2 =  1.398E-09

      iter #   3 total cpu time : 17268.5 secs   av.it.:  14.7
      thresh= 3.739E-06 alpha_mix =  0.700 |ddv_scf|^2 =  7.752E-12

      iter #   4 total cpu time : 17357.5 secs   av.it.:  15.0
      thresh= 2.784E-07 alpha_mix =  0.700 |ddv_scf|^2 =  1.614E-12

      iter #   5 total cpu time : 17445.1 secs   av.it.:  14.9
      thresh= 1.271E-07 alpha_mix =  0.700 |ddv_scf|^2 =  1.751E-14

      iter #   6 total cpu time : 17534.7 secs   av.it.:  15.2
      thresh= 1.323E-08 alpha_mix =  0.700 |ddv_scf|^2 =  3.489E-15

     End of self-consistent calculation

     Convergence has been achieved 


     Representation #  27 mode #  27

     Self-consistent Calculation

      iter #   1 total cpu time : 17606.9 secs   av.it.:   5.0
      thresh= 1.000E-02 alpha_mix =  0.700 |ddv_scf|^2 =  4.739E-08

      iter #   2 total cpu time : 17695.0 secs   av.it.:  14.9
      thresh= 2.177E-05 alpha_mix =  0.700 |ddv_scf|^2 =  2.698E-08

      iter #   3 total cpu time : 17779.6 secs   av.it.:  14.3
      thresh= 1.643E-05 alpha_mix =  0.700 |ddv_scf|^2 =  1.501E-10

      iter #   4 total cpu time : 17867.3 secs   av.it.:  15.0
      thresh= 1.225E-06 alpha_mix =  0.700 |ddv_scf|^2 =  5.988E-12

      iter #   5 total cpu time : 17955.4 secs   av.it.:  15.0
      thresh= 2.447E-07 alpha_mix =  0.700 |ddv_scf|^2 =  1.320E-13

      iter #   6 total cpu time : 18046.4 secs   av.it.:  15.9
      thresh= 3.633E-08 alpha_mix =  0.700 |ddv_scf|^2 =  1.930E-14

      iter #   7 total cpu time : 18135.5 secs   av.it.:  15.1
      thresh= 1.389E-08 alpha_mix =  0.700 |ddv_scf|^2 =  6.575E-16

     End of self-consistent calculation

     Convergence has been achieved 


     Representation #  28 mode #  28

     Self-consistent Calculation

      iter #   1 total cpu time : 18218.2 secs   av.it.:   3.0
      thresh= 1.000E-02 alpha_mix =  0.700 |ddv_scf|^2 =  8.010E-09

      iter #   2 total cpu time : 18305.7 secs   av.it.:  14.9
      thresh= 8.950E-06 alpha_mix =  0.700 |ddv_scf|^2 =  5.654E-09

      iter #   3 total cpu time : 18388.9 secs   av.it.:  14.0
      thresh= 7.519E-06 alpha_mix =  0.700 |ddv_scf|^2 =  5.039E-12

      iter #   4 total cpu time : 18478.6 secs   av.it.:  15.3
      thresh= 2.245E-07 alpha_mix =  0.700 |ddv_scf|^2 =  1.156E-12

      iter #   5 total cpu time : 18564.2 secs   av.it.:  14.8
      thresh= 1.075E-07 alpha_mix =  0.700 |ddv_scf|^2 =  1.265E-14

      iter #   6 total cpu time : 18653.8 secs   av.it.:  15.4
      thresh= 1.125E-08 alpha_mix =  0.700 |ddv_scf|^2 =  1.748E-15

     End of self-consistent calculation

     Convergence has been achieved 


     Representation #  29 mode #  29

     Self-consistent Calculation

      iter #   1 total cpu time : 18720.4 secs   av.it.:   3.8
      thresh= 1.000E-02 alpha_mix =  0.700 |ddv_scf|^2 =  4.326E-09

      iter #   2 total cpu time : 18811.2 secs   av.it.:  15.7
      thresh= 6.577E-06 alpha_mix =  0.700 |ddv_scf|^2 =  2.651E-09

      iter #   3 total cpu time : 18898.1 secs   av.it.:  14.9
      thresh= 5.149E-06 alpha_mix =  0.700 |ddv_scf|^2 =  2.219E-12

      iter #   4 total cpu time : 18990.3 secs   av.it.:  15.9
      thresh= 1.490E-07 alpha_mix =  0.700 |ddv_scf|^2 =  5.678E-13

      iter #   5 total cpu time : 19080.0 secs   av.it.:  15.0
      thresh= 7.536E-08 alpha_mix =  0.700 |ddv_scf|^2 =  3.441E-14

      iter #   6 total cpu time : 19168.4 secs   av.it.:  15.0
      thresh= 1.855E-08 alpha_mix =  0.700 |ddv_scf|^2 =  3.769E-15

     End of self-consistent calculation

     Convergence has been achieved 


     Representation #  30 mode #  30

     Self-consistent Calculation

      iter #   1 total cpu time : 19240.7 secs   av.it.:   5.0
      thresh= 1.000E-02 alpha_mix =  0.700 |ddv_scf|^2 =  4.998E-08

      iter #   2 total cpu time : 19329.5 secs   av.it.:  15.0
      thresh= 2.236E-05 alpha_mix =  0.700 |ddv_scf|^2 =  3.710E-08

      iter #   3 total cpu time : 19415.4 secs   av.it.:  14.3
      thresh= 1.926E-05 alpha_mix =  0.700 |ddv_scf|^2 =  5.678E-11

      iter #   4 total cpu time : 19505.8 secs   av.it.:  15.7
      thresh= 7.535E-07 alpha_mix =  0.700 |ddv_scf|^2 =  6.389E-12

      iter #   5 total cpu time : 19596.5 secs   av.it.:  15.1
      thresh= 2.528E-07 alpha_mix =  0.700 |ddv_scf|^2 =  2.732E-13

      iter #   6 total cpu time : 19689.7 secs   av.it.:  15.5
      thresh= 5.226E-08 alpha_mix =  0.700 |ddv_scf|^2 =  1.051E-14

      iter #   7 total cpu time : 19785.2 secs   av.it.:  15.9
      thresh= 1.025E-08 alpha_mix =  0.700 |ddv_scf|^2 =  1.547E-15

     End of self-consistent calculation

     Convergence has been achieved 


     Representation #  31 mode #  31

     Self-consistent Calculation

      iter #   1 total cpu time : 19869.2 secs   av.it.:   3.0
      thresh= 1.000E-02 alpha_mix =  0.700 |ddv_scf|^2 =  6.356E-09

      iter #   2 total cpu time : 19961.1 secs   av.it.:  15.0
      thresh= 7.972E-06 alpha_mix =  0.700 |ddv_scf|^2 =  3.395E-09

      iter #   3 total cpu time : 20048.2 secs   av.it.:  14.6
      thresh= 5.827E-06 alpha_mix =  0.700 |ddv_scf|^2 =  1.340E-11

      iter #   4 total cpu time : 20137.9 secs   av.it.:  15.0
      thresh= 3.660E-07 alpha_mix =  0.700 |ddv_scf|^2 =  1.760E-12

      iter #   5 total cpu time : 20223.3 secs   av.it.:  14.7
      thresh= 1.327E-07 alpha_mix =  0.700 |ddv_scf|^2 =  4.302E-14

      iter #   6 total cpu time : 20312.3 secs   av.it.:  15.1
      thresh= 2.074E-08 alpha_mix =  0.700 |ddv_scf|^2 =  8.303E-15

     End of self-consistent calculation

     Convergence has been achieved 


     Representation #  32 mode #  32

     Self-consistent Calculation

      iter #   1 total cpu time : 20378.2 secs   av.it.:   3.4
      thresh= 1.000E-02 alpha_mix =  0.700 |ddv_scf|^2 =  2.488E-09

      iter #   2 total cpu time : 20470.9 secs   av.it.:  15.9
      thresh= 4.988E-06 alpha_mix =  0.700 |ddv_scf|^2 =  1.430E-09

      iter #   3 total cpu time : 20558.8 secs   av.it.:  14.9
      thresh= 3.782E-06 alpha_mix =  0.700 |ddv_scf|^2 =  5.423E-12

      iter #   4 total cpu time : 20647.9 secs   av.it.:  15.0
      thresh= 2.329E-07 alpha_mix =  0.700 |ddv_scf|^2 =  6.631E-13

      iter #   5 total cpu time : 20740.6 secs   av.it.:  15.0
      thresh= 8.143E-08 alpha_mix =  0.700 |ddv_scf|^2 =  4.828E-14

      iter #   6 total cpu time : 20833.7 secs   av.it.:  15.0
      thresh= 2.197E-08 alpha_mix =  0.700 |ddv_scf|^2 =  6.115E-15

     End of self-consistent calculation

     Convergence has been achieved 


     Representation #  33 mode #  33

     Self-consistent Calculation

      iter #   1 total cpu time : 20901.5 secs   av.it.:   3.6
      thresh= 1.000E-02 alpha_mix =  0.700 |ddv_scf|^2 =  4.134E-09

      iter #   2 total cpu time : 20996.8 secs   av.it.:  15.9
      thresh= 6.429E-06 alpha_mix =  0.700 |ddv_scf|^2 =  3.052E-09

      iter #   3 total cpu time : 21087.3 secs   av.it.:  14.9
      thresh= 5.524E-06 alpha_mix =  0.700 |ddv_scf|^2 =  5.549E-12

      iter #   4 total cpu time : 21184.7 secs   av.it.:  16.0
      thresh= 2.356E-07 alpha_mix =  0.700 |ddv_scf|^2 =  4.766E-13

      iter #   5 total cpu time : 21281.4 secs   av.it.:  16.0
      thresh= 6.904E-08 alpha_mix =  0.700 |ddv_scf|^2 =  1.753E-14

      iter #   6 total cpu time : 21376.0 secs   av.it.:  15.9
      thresh= 1.324E-08 alpha_mix =  0.700 |ddv_scf|^2 =  1.157E-15

     End of self-consistent calculation

     Convergence has been achieved 


     Representation #  34 mode #  34

     Self-consistent Calculation

      iter #   1 total cpu time : 21440.8 secs   av.it.:   3.0
      thresh= 1.000E-02 alpha_mix =  0.700 |ddv_scf|^2 =  8.062E-10

      iter #   2 total cpu time : 21531.8 secs   av.it.:  15.9
      thresh= 2.839E-06 alpha_mix =  0.700 |ddv_scf|^2 =  9.187E-11

      iter #   3 total cpu time : 21622.0 secs   av.it.:  15.5
      thresh= 9.585E-07 alpha_mix =  0.700 |ddv_scf|^2 =  7.360E-12

      iter #   4 total cpu time : 21710.9 secs   av.it.:  15.0
      thresh= 2.713E-07 alpha_mix =  0.700 |ddv_scf|^2 =  6.238E-13

      iter #   5 total cpu time : 21799.2 secs   av.it.:  15.0
      thresh= 7.898E-08 alpha_mix =  0.700 |ddv_scf|^2 =  2.002E-14

      iter #   6 total cpu time : 21888.9 secs   av.it.:  15.5
      thresh= 1.415E-08 alpha_mix =  0.700 |ddv_scf|^2 =  8.368E-16

     End of self-consistent calculation

     Convergence has been achieved 


     Representation #  35 mode #  35

     Self-consistent Calculation

      iter #   1 total cpu time : 21953.7 secs   av.it.:   3.0
      thresh= 1.000E-02 alpha_mix =  0.700 |ddv_scf|^2 =  2.570E-09

      iter #   2 total cpu time : 22043.8 secs   av.it.:  15.6
      thresh= 5.070E-06 alpha_mix =  0.700 |ddv_scf|^2 =  9.629E-10

      iter #   3 total cpu time : 22131.2 secs   av.it.:  15.0
      thresh= 3.103E-06 alpha_mix =  0.700 |ddv_scf|^2 =  1.919E-11

      iter #   4 total cpu time : 22219.5 secs   av.it.:  15.0
      thresh= 4.380E-07 alpha_mix =  0.700 |ddv_scf|^2 =  6.379E-13

      iter #   5 total cpu time : 22309.6 secs   av.it.:  15.7
      thresh= 7.987E-08 alpha_mix =  0.700 |ddv_scf|^2 =  3.444E-14

      iter #   6 total cpu time : 22399.1 secs   av.it.:  15.3
      thresh= 1.856E-08 alpha_mix =  0.700 |ddv_scf|^2 =  1.355E-15

     End of self-consistent calculation

     Convergence has been achieved 


     Representation #  36 mode #  36

     Self-consistent Calculation

      iter #   1 total cpu time : 22470.0 secs   av.it.:   4.2
      thresh= 1.000E-02 alpha_mix =  0.700 |ddv_scf|^2 =  5.326E-09

      iter #   2 total cpu time : 22563.0 secs   av.it.:  16.0
      thresh= 7.298E-06 alpha_mix =  0.700 |ddv_scf|^2 =  3.463E-10

      iter #   3 total cpu time : 22654.2 secs   av.it.:  15.9
      thresh= 1.861E-06 alpha_mix =  0.700 |ddv_scf|^2 =  1.170E-11

      iter #   4 total cpu time : 22744.1 secs   av.it.:  15.8
      thresh= 3.420E-07 alpha_mix =  0.700 |ddv_scf|^2 =  3.556E-12

      iter #   5 total cpu time : 22831.4 secs   av.it.:  15.0
      thresh= 1.886E-07 alpha_mix =  0.700 |ddv_scf|^2 =  8.517E-14

      iter #   6 total cpu time : 22920.6 secs   av.it.:  15.8
      thresh= 2.918E-08 alpha_mix =  0.700 |ddv_scf|^2 =  3.602E-15

     End of self-consistent calculation

     Convergence has been achieved 


     Representation #  37 mode #  37

     Self-consistent Calculation

      iter #   1 total cpu time : 23002.6 secs   av.it.:   3.0
      thresh= 1.000E-02 alpha_mix =  0.700 |ddv_scf|^2 =  8.322E-10

      iter #   2 total cpu time : 23094.5 secs   av.it.:  15.9
      thresh= 2.885E-06 alpha_mix =  0.700 |ddv_scf|^2 =  1.385E-10

      iter #   3 total cpu time : 23184.8 secs   av.it.:  15.5
      thresh= 1.177E-06 alpha_mix =  0.700 |ddv_scf|^2 =  1.825E-11

      iter #   4 total cpu time : 23272.7 secs   av.it.:  15.0
      thresh= 4.272E-07 alpha_mix =  0.700 |ddv_scf|^2 =  2.812E-13

      iter #   5 total cpu time : 23362.1 secs   av.it.:  15.4
      thresh= 5.303E-08 alpha_mix =  0.700 |ddv_scf|^2 =  6.285E-15

     End of self-consistent calculation

     Convergence has been achieved 


     Representation #  38 mode #  38

     Self-consistent Calculation

      iter #   1 total cpu time : 23427.1 secs   av.it.:   3.0
      thresh= 1.000E-02 alpha_mix =  0.700 |ddv_scf|^2 =  1.685E-09

      iter #   2 total cpu time : 23516.8 secs   av.it.:  15.8
      thresh= 4.105E-06 alpha_mix =  0.700 |ddv_scf|^2 =  3.540E-10

      iter #   3 total cpu time : 23605.2 secs   av.it.:  15.1
      thresh= 1.881E-06 alpha_mix =  0.700 |ddv_scf|^2 =  1.328E-11

      iter #   4 total cpu time : 23693.2 secs   av.it.:  15.0
      thresh= 3.644E-07 alpha_mix =  0.700 |ddv_scf|^2 =  9.422E-13

      iter #   5 total cpu time : 23781.8 secs   av.it.:  15.1
      thresh= 9.707E-08 alpha_mix =  0.700 |ddv_scf|^2 =  2.274E-14

      iter #   6 total cpu time : 23871.5 secs   av.it.:  15.7
      thresh= 1.508E-08 alpha_mix =  0.700 |ddv_scf|^2 =  1.011E-15

     End of self-consistent calculation

     Convergence has been achieved 


     Representation #  39 mode #  39

     Self-consistent Calculation

      iter #   1 total cpu time : 23950.9 secs   av.it.:   6.1
      thresh= 1.000E-02 alpha_mix =  0.700 |ddv_scf|^2 =  2.053E-07

      iter #   2 total cpu time : 24038.6 secs   av.it.:  15.1
      thresh= 4.531E-05 alpha_mix =  0.700 |ddv_scf|^2 =  9.979E-08

      iter #   3 total cpu time : 24124.1 secs   av.it.:  14.7
      thresh= 3.159E-05 alpha_mix =  0.700 |ddv_scf|^2 =  5.083E-10

      iter #   4 total cpu time : 24213.0 secs   av.it.:  15.2
      thresh= 2.254E-06 alpha_mix =  0.700 |ddv_scf|^2 =  1.193E-11

      iter #   5 total cpu time : 24304.0 secs   av.it.:  15.6
      thresh= 3.453E-07 alpha_mix =  0.700 |ddv_scf|^2 =  5.469E-13

      iter #   6 total cpu time : 24391.2 secs   av.it.:  14.9
      thresh= 7.396E-08 alpha_mix =  0.700 |ddv_scf|^2 =  5.573E-14

      iter #   7 total cpu time : 24476.5 secs   av.it.:  14.5
      thresh= 2.361E-08 alpha_mix =  0.700 |ddv_scf|^2 =  5.406E-15

     End of self-consistent calculation

     Convergence has been achieved 


     Representation #  40 mode #  40

     Self-consistent Calculation

      iter #   1 total cpu time : 24553.4 secs   av.it.:   4.6
      thresh= 1.000E-02 alpha_mix =  0.700 |ddv_scf|^2 =  8.657E-09

      iter #   2 total cpu time : 24645.9 secs   av.it.:  15.9
      thresh= 9.304E-06 alpha_mix =  0.700 |ddv_scf|^2 =  1.863E-09

      iter #   3 total cpu time : 24735.9 secs   av.it.:  15.3
      thresh= 4.316E-06 alpha_mix =  0.700 |ddv_scf|^2 =  4.075E-11

      iter #   4 total cpu time : 24825.9 secs   av.it.:  15.3
      thresh= 6.384E-07 alpha_mix =  0.700 |ddv_scf|^2 =  5.735E-12

      iter #   5 total cpu time : 24915.0 secs   av.it.:  15.0
      thresh= 2.395E-07 alpha_mix =  0.700 |ddv_scf|^2 =  3.718E-13

      iter #   6 total cpu time : 25004.6 secs   av.it.:  15.5
      thresh= 6.098E-08 alpha_mix =  0.700 |ddv_scf|^2 =  1.328E-15

     End of self-consistent calculation

     Convergence has been achieved 


     Representation #  41 mode #  41

     Self-consistent Calculation

      iter #   1 total cpu time : 25089.5 secs   av.it.:   3.9
      thresh= 1.000E-02 alpha_mix =  0.700 |ddv_scf|^2 =  6.103E-09

      iter #   2 total cpu time : 25179.3 secs   av.it.:  15.5
      thresh= 7.812E-06 alpha_mix =  0.700 |ddv_scf|^2 =  4.026E-09

      iter #   3 total cpu time : 25265.3 secs   av.it.:  14.9
      thresh= 6.345E-06 alpha_mix =  0.700 |ddv_scf|^2 =  4.116E-12

      iter #   4 total cpu time : 25356.4 secs   av.it.:  15.9
      thresh= 2.029E-07 alpha_mix =  0.700 |ddv_scf|^2 =  7.009E-13

      iter #   5 total cpu time : 25446.1 secs   av.it.:  15.3
      thresh= 8.372E-08 alpha_mix =  0.700 |ddv_scf|^2 =  5.261E-14

      iter #   6 total cpu time : 25534.7 secs   av.it.:  15.0
      thresh= 2.294E-08 alpha_mix =  0.700 |ddv_scf|^2 =  7.302E-16

     End of self-consistent calculation

     Convergence has been achieved 


     Representation #  42 mode #  42

     Self-consistent Calculation

      iter #   1 total cpu time : 25597.8 secs   av.it.:   3.0
      thresh= 1.000E-02 alpha_mix =  0.700 |ddv_scf|^2 =  3.744E-10

      iter #   2 total cpu time : 25689.2 secs   av.it.:  15.8
      thresh= 1.935E-06 alpha_mix =  0.700 |ddv_scf|^2 =  7.829E-11

      iter #   3 total cpu time : 25778.8 secs   av.it.:  15.2
      thresh= 8.848E-07 alpha_mix =  0.700 |ddv_scf|^2 =  1.863E-11

      iter #   4 total cpu time : 25866.9 secs   av.it.:  14.9
      thresh= 4.316E-07 alpha_mix =  0.700 |ddv_scf|^2 =  2.079E-13

      iter #   5 total cpu time : 25957.7 secs   av.it.:  15.7
      thresh= 4.559E-08 alpha_mix =  0.700 |ddv_scf|^2 =  1.270E-14

      iter #   6 total cpu time : 26047.6 secs   av.it.:  15.4
      thresh= 1.127E-08 alpha_mix =  0.700 |ddv_scf|^2 =  5.585E-16

     End of self-consistent calculation

     Convergence has been achieved 


     Representation #  43 mode #  43

     Self-consistent Calculation

      iter #   1 total cpu time : 26118.5 secs   av.it.:   4.2
      thresh= 1.000E-02 alpha_mix =  0.700 |ddv_scf|^2 =  5.515E-09

      iter #   2 total cpu time : 26211.3 secs   av.it.:  16.0
      thresh= 7.426E-06 alpha_mix =  0.700 |ddv_scf|^2 =  3.910E-10

      iter #   3 total cpu time : 26302.6 secs   av.it.:  15.9
      thresh= 1.977E-06 alpha_mix =  0.700 |ddv_scf|^2 =  2.025E-11

      iter #   4 total cpu time : 26392.7 secs   av.it.:  15.4
      thresh= 4.500E-07 alpha_mix =  0.700 |ddv_scf|^2 =  4.786E-12

      iter #   5 total cpu time : 26480.9 secs   av.it.:  15.0
      thresh= 2.188E-07 alpha_mix =  0.700 |ddv_scf|^2 =  1.877E-14

      iter #   6 total cpu time : 26574.9 secs   av.it.:  15.9
      thresh= 1.370E-08 alpha_mix =  0.700 |ddv_scf|^2 =  8.172E-16

     End of self-consistent calculation

     Convergence has been achieved 


     Representation #  44 mode #  44

     Self-consistent Calculation

      iter #   1 total cpu time : 26675.4 secs   av.it.:   6.3
      thresh= 1.000E-02 alpha_mix =  0.700 |ddv_scf|^2 =  7.392E-08

      iter #   2 total cpu time : 26769.4 secs   av.it.:  15.6
      thresh= 2.719E-05 alpha_mix =  0.700 |ddv_scf|^2 =  2.266E-08

      iter #   3 total cpu time : 26861.4 secs   av.it.:  15.0
      thresh= 1.505E-05 alpha_mix =  0.700 |ddv_scf|^2 =  2.885E-10

      iter #   4 total cpu time : 26950.5 secs   av.it.:  14.9
      thresh= 1.698E-06 alpha_mix =  0.700 |ddv_scf|^2 =  1.979E-11

      iter #   5 total cpu time : 27039.3 secs   av.it.:  14.9
      thresh= 4.448E-07 alpha_mix =  0.700 |ddv_scf|^2 =  2.207E-13

      iter #   6 total cpu time : 27130.0 secs   av.it.:  15.7
      thresh= 4.698E-08 alpha_mix =  0.700 |ddv_scf|^2 =  8.507E-15

     End of self-consistent calculation

     Convergence has been achieved 


     Representation #  45 mode #  45

     Self-consistent Calculation

      iter #   1 total cpu time : 27199.3 secs   av.it.:   3.0
      thresh= 1.000E-02 alpha_mix =  0.700 |ddv_scf|^2 =  1.150E-09

      iter #   2 total cpu time : 27291.1 secs   av.it.:  15.9
      thresh= 3.391E-06 alpha_mix =  0.700 |ddv_scf|^2 =  2.976E-10

      iter #   3 total cpu time : 27380.1 secs   av.it.:  15.0
      thresh= 1.725E-06 alpha_mix =  0.700 |ddv_scf|^2 =  1.546E-11

      iter #   4 total cpu time : 27469.3 secs   av.it.:  15.0
      thresh= 3.931E-07 alpha_mix =  0.700 |ddv_scf|^2 =  4.248E-13

      iter #   5 total cpu time : 27559.9 secs   av.it.:  15.6
      thresh= 6.518E-08 alpha_mix =  0.700 |ddv_scf|^2 =  2.229E-14

      iter #   6 total cpu time : 27649.2 secs   av.it.:  15.4
      thresh= 1.493E-08 alpha_mix =  0.700 |ddv_scf|^2 =  1.216E-15

     End of self-consistent calculation

     Convergence has been achieved 


     Representation #  46 mode #  46

     Self-consistent Calculation

      iter #   1 total cpu time : 27714.3 secs   av.it.:   3.0
      thresh= 1.000E-02 alpha_mix =  0.700 |ddv_scf|^2 =  2.409E-09

      iter #   2 total cpu time : 27806.1 secs   av.it.:  15.9
      thresh= 4.908E-06 alpha_mix =  0.700 |ddv_scf|^2 =  1.817E-09

      iter #   3 total cpu time : 27891.2 secs   av.it.:  14.9
      thresh= 4.263E-06 alpha_mix =  0.700 |ddv_scf|^2 =  4.917E-12

      iter #   4 total cpu time : 27983.1 secs   av.it.:  16.0
      thresh= 2.217E-07 alpha_mix =  0.700 |ddv_scf|^2 =  5.080E-13

      iter #   5 total cpu time : 28074.3 secs   av.it.:  16.0
      thresh= 7.127E-08 alpha_mix =  0.700 |ddv_scf|^2 =  8.306E-15

     End of self-consistent calculation

     Convergence has been achieved 


     Representation #  47 modes #  47  48

     Self-consistent Calculation

      iter #   1 total cpu time : 28175.8 secs   av.it.:   3.3
      thresh= 1.000E-02 alpha_mix =  0.700 |ddv_scf|^2 =  3.836E-10

      iter #   2 total cpu time : 28361.6 secs   av.it.:  16.4
      thresh= 1.959E-06 alpha_mix =  0.700 |ddv_scf|^2 =  2.629E-10

      iter #   3 total cpu time : 28532.9 secs   av.it.:  15.0
      thresh= 1.621E-06 alpha_mix =  0.700 |ddv_scf|^2 =  1.284E-12

      iter #   4 total cpu time : 28720.4 secs   av.it.:  16.5
      thresh= 1.133E-07 alpha_mix =  0.700 |ddv_scf|^2 =  1.086E-13

      iter #   5 total cpu time : 28907.7 secs   av.it.:  16.5
      thresh= 3.295E-08 alpha_mix =  0.700 |ddv_scf|^2 =  2.785E-15

     End of self-consistent calculation

     Convergence has been achieved 


     Representation #  48 mode #  49

     Self-consistent Calculation

      iter #   1 total cpu time : 28995.5 secs   av.it.:   3.0
      thresh= 1.000E-02 alpha_mix =  0.700 |ddv_scf|^2 =  1.211E-09

      iter #   2 total cpu time : 29085.6 secs   av.it.:  15.9
      thresh= 3.481E-06 alpha_mix =  0.700 |ddv_scf|^2 =  6.731E-10

      iter #   3 total cpu time : 29171.3 secs   av.it.:  14.9
      thresh= 2.594E-06 alpha_mix =  0.700 |ddv_scf|^2 =  7.018E-12

      iter #   4 total cpu time : 29260.4 secs   av.it.:  15.6
      thresh= 2.649E-07 alpha_mix =  0.700 |ddv_scf|^2 =  4.541E-13

      iter #   5 total cpu time : 29351.2 secs   av.it.:  15.9
      thresh= 6.739E-08 alpha_mix =  0.700 |ddv_scf|^2 =  1.692E-14

      iter #   6 total cpu time : 29440.6 secs   av.it.:  15.9
      thresh= 1.301E-08 alpha_mix =  0.700 |ddv_scf|^2 =  8.415E-16

     End of self-consistent calculation

     Convergence has been achieved 


     Representation #  49 mode #  50

     Self-consistent Calculation

      iter #   1 total cpu time : 29511.3 secs   av.it.:   4.6
      thresh= 1.000E-02 alpha_mix =  0.700 |ddv_scf|^2 =  9.539E-09

      iter #   2 total cpu time : 29602.4 secs   av.it.:  15.9
      thresh= 9.767E-06 alpha_mix =  0.700 |ddv_scf|^2 =  3.599E-09

      iter #   3 total cpu time : 29688.6 secs   av.it.:  15.0
      thresh= 5.999E-06 alpha_mix =  0.700 |ddv_scf|^2 =  1.244E-10

      iter #   4 total cpu time : 29777.3 secs   av.it.:  15.0
      thresh= 1.115E-06 alpha_mix =  0.700 |ddv_scf|^2 =  2.594E-12

      iter #   5 total cpu time : 29867.8 secs   av.it.:  15.6
      thresh= 1.611E-07 alpha_mix =  0.700 |ddv_scf|^2 =  4.049E-13

      iter #   6 total cpu time : 29956.3 secs   av.it.:  15.0
      thresh= 6.363E-08 alpha_mix =  0.700 |ddv_scf|^2 =  1.751E-15

     End of self-consistent calculation

     Convergence has been achieved 


     Representation #  50 mode #  51

     Self-consistent Calculation

      iter #   1 total cpu time : 30039.7 secs   av.it.:   3.1
      thresh= 1.000E-02 alpha_mix =  0.700 |ddv_scf|^2 =  2.836E-09

      iter #   2 total cpu time : 30130.4 secs   av.it.:  15.9
      thresh= 5.325E-06 alpha_mix =  0.700 |ddv_scf|^2 =  2.188E-09

      iter #   3 total cpu time : 30216.4 secs   av.it.:  14.9
      thresh= 4.678E-06 alpha_mix =  0.700 |ddv_scf|^2 =  4.496E-12

      iter #   4 total cpu time : 30310.0 secs   av.it.:  16.0
      thresh= 2.120E-07 alpha_mix =  0.700 |ddv_scf|^2 =  9.283E-13

      iter #   5 total cpu time : 30401.5 secs   av.it.:  15.7
      thresh= 9.635E-08 alpha_mix =  0.700 |ddv_scf|^2 =  5.004E-14

      iter #   6 total cpu time : 30492.3 secs   av.it.:  15.4
      thresh= 2.237E-08 alpha_mix =  0.700 |ddv_scf|^2 =  2.674E-15

     End of self-consistent calculation

     Convergence has been achieved 


     Representation #  51 mode #  52

     Self-consistent Calculation

      iter #   1 total cpu time : 30557.7 secs   av.it.:   3.1
      thresh= 1.000E-02 alpha_mix =  0.700 |ddv_scf|^2 =  2.282E-09

      iter #   2 total cpu time : 30648.8 secs   av.it.:  15.9
      thresh= 4.777E-06 alpha_mix =  0.700 |ddv_scf|^2 =  1.183E-09

      iter #   3 total cpu time : 30735.8 secs   av.it.:  14.9
      thresh= 3.440E-06 alpha_mix =  0.700 |ddv_scf|^2 =  1.198E-11

      iter #   4 total cpu time : 30824.9 secs   av.it.:  15.1
      thresh= 3.462E-07 alpha_mix =  0.700 |ddv_scf|^2 =  1.047E-12

      iter #   5 total cpu time : 30914.5 secs   av.it.:  15.2
      thresh= 1.023E-07 alpha_mix =  0.700 |ddv_scf|^2 =  5.637E-14

      iter #   6 total cpu time : 31003.9 secs   av.it.:  15.1
      thresh= 2.374E-08 alpha_mix =  0.700 |ddv_scf|^2 =  1.576E-15

     End of self-consistent calculation

     Convergence has been achieved 


     Representation #  52 mode #  53

     Self-consistent Calculation

      iter #   1 total cpu time : 31069.0 secs   av.it.:   3.0
      thresh= 1.000E-02 alpha_mix =  0.700 |ddv_scf|^2 =  1.332E-09

      iter #   2 total cpu time : 31162.5 secs   av.it.:  16.0
      thresh= 3.650E-06 alpha_mix =  0.700 |ddv_scf|^2 =  5.824E-10

      iter #   3 total cpu time : 31252.1 secs   av.it.:  15.0
      thresh= 2.413E-06 alpha_mix =  0.700 |ddv_scf|^2 =  8.161E-12

      iter #   4 total cpu time : 31343.9 secs   av.it.:  15.4
      thresh= 2.857E-07 alpha_mix =  0.700 |ddv_scf|^2 =  1.027E-12

      iter #   5 total cpu time : 31433.4 secs   av.it.:  15.0
      thresh= 1.013E-07 alpha_mix =  0.700 |ddv_scf|^2 =  6.091E-14

      iter #   6 total cpu time : 31523.8 secs   av.it.:  15.3
      thresh= 2.468E-08 alpha_mix =  0.700 |ddv_scf|^2 =  1.752E-15

     End of self-consistent calculation

     Convergence has been achieved 


     Representation #  53 mode #  54

     Self-consistent Calculation

      iter #   1 total cpu time : 31589.9 secs   av.it.:   3.0
      thresh= 1.000E-02 alpha_mix =  0.700 |ddv_scf|^2 =  3.700E-09

      iter #   2 total cpu time : 31679.7 secs   av.it.:  15.4
      thresh= 6.083E-06 alpha_mix =  0.700 |ddv_scf|^2 =  2.487E-09

      iter #   3 total cpu time : 31764.9 secs   av.it.:  14.7
      thresh= 4.987E-06 alpha_mix =  0.700 |ddv_scf|^2 =  6.201E-12

      iter #   4 total cpu time : 31855.1 secs   av.it.:  15.7
      thresh= 2.490E-07 alpha_mix =  0.700 |ddv_scf|^2 =  7.445E-13

      iter #   5 total cpu time : 31944.5 secs   av.it.:  15.2
      thresh= 8.628E-08 alpha_mix =  0.700 |ddv_scf|^2 =  2.391E-14

      iter #   6 total cpu time : 32037.6 secs   av.it.:  15.9
      thresh= 1.546E-08 alpha_mix =  0.700 |ddv_scf|^2 =  2.096E-15

     End of self-consistent calculation

     Convergence has been achieved 


     Representation #  54 mode #  55

     Self-consistent Calculation

      iter #   1 total cpu time : 32103.1 secs   av.it.:   3.0
      thresh= 1.000E-02 alpha_mix =  0.700 |ddv_scf|^2 =  6.179E-10

      iter #   2 total cpu time : 32200.1 secs   av.it.:  16.0
      thresh= 2.486E-06 alpha_mix =  0.700 |ddv_scf|^2 =  1.351E-10

      iter #   3 total cpu time : 32294.6 secs   av.it.:  15.5
      thresh= 1.162E-06 alpha_mix =  0.700 |ddv_scf|^2 =  7.040E-12

      iter #   4 total cpu time : 32388.9 secs   av.it.:  15.4
      thresh= 2.653E-07 alpha_mix =  0.700 |ddv_scf|^2 =  1.796E-13

      iter #   5 total cpu time : 32484.1 secs   av.it.:  15.8
      thresh= 4.238E-08 alpha_mix =  0.700 |ddv_scf|^2 =  3.094E-14

      iter #   6 total cpu time : 32576.0 secs   av.it.:  14.9
      thresh= 1.759E-08 alpha_mix =  0.700 |ddv_scf|^2 =  1.668E-15

     End of self-consistent calculation

     Convergence has been achieved 


     Representation #  55 mode #  56

     Self-consistent Calculation

      iter #   1 total cpu time : 32660.1 secs   av.it.:   6.6
      thresh= 1.000E-02 alpha_mix =  0.700 |ddv_scf|^2 =  2.128E-07

      iter #   2 total cpu time : 32753.2 secs   av.it.:  15.1
      thresh= 4.613E-05 alpha_mix =  0.700 |ddv_scf|^2 =  1.641E-07

      iter #   3 total cpu time : 32841.8 secs   av.it.:  14.5
      thresh= 4.051E-05 alpha_mix =  0.700 |ddv_scf|^2 =  1.264E-10

      iter #   4 total cpu time : 32937.1 secs   av.it.:  15.7
      thresh= 1.124E-06 alpha_mix =  0.700 |ddv_scf|^2 =  2.154E-11

      iter #   5 total cpu time : 33031.0 secs   av.it.:  15.6
      thresh= 4.641E-07 alpha_mix =  0.700 |ddv_scf|^2 =  1.042E-12

      iter #   6 total cpu time : 33125.3 secs   av.it.:  15.5
      thresh= 1.021E-07 alpha_mix =  0.700 |ddv_scf|^2 =  2.715E-14

      iter #   7 total cpu time : 33219.6 secs   av.it.:  15.6
      thresh= 1.648E-08 alpha_mix =  0.700 |ddv_scf|^2 =  2.063E-15

     End of self-consistent calculation

     Convergence has been achieved 


     Representation #  56 mode #  57

     Self-consistent Calculation

      iter #   1 total cpu time : 33298.6 secs   av.it.:   5.0
      thresh= 1.000E-02 alpha_mix =  0.700 |ddv_scf|^2 =  3.326E-08

      iter #   2 total cpu time : 33392.7 secs   av.it.:  15.3
      thresh= 1.824E-05 alpha_mix =  0.700 |ddv_scf|^2 =  2.238E-08

      iter #   3 total cpu time : 33482.1 secs   av.it.:  14.7
      thresh= 1.496E-05 alpha_mix =  0.700 |ddv_scf|^2 =  5.460E-11

      iter #   4 total cpu time : 33577.4 secs   av.it.:  15.9
      thresh= 7.389E-07 alpha_mix =  0.700 |ddv_scf|^2 =  5.102E-12

      iter #   5 total cpu time : 33670.3 secs   av.it.:  15.7
      thresh= 2.259E-07 alpha_mix =  0.700 |ddv_scf|^2 =  8.353E-13

      iter #   6 total cpu time : 33759.3 secs   av.it.:  15.5
      thresh= 9.140E-08 alpha_mix =  0.700 |ddv_scf|^2 =  6.253E-15

     End of self-consistent calculation

     Convergence has been achieved 


     Representation #  57 mode #  58

     Self-consistent Calculation

      iter #   1 total cpu time : 33839.7 secs   av.it.:   3.0
      thresh= 1.000E-02 alpha_mix =  0.700 |ddv_scf|^2 =  8.569E-10

      iter #   2 total cpu time : 33929.5 secs   av.it.:  15.9
      thresh= 2.927E-06 alpha_mix =  0.700 |ddv_scf|^2 =  3.810E-10

      iter #   3 total cpu time : 34016.0 secs   av.it.:  14.9
      thresh= 1.952E-06 alpha_mix =  0.700 |ddv_scf|^2 =  1.060E-11

      iter #   4 total cpu time : 34105.2 secs   av.it.:  15.0
      thresh= 3.256E-07 alpha_mix =  0.700 |ddv_scf|^2 =  3.030E-13

      iter #   5 total cpu time : 34195.9 secs   av.it.:  15.5
      thresh= 5.505E-08 alpha_mix =  0.700 |ddv_scf|^2 =  1.505E-14

      iter #   6 total cpu time : 34286.6 secs   av.it.:  15.7
      thresh= 1.227E-08 alpha_mix =  0.700 |ddv_scf|^2 =  1.394E-15

     End of self-consistent calculation

     Convergence has been achieved 


     Representation #  58 mode #  59

     Self-consistent Calculation

      iter #   1 total cpu time : 34350.9 secs   av.it.:   3.0
      thresh= 1.000E-02 alpha_mix =  0.700 |ddv_scf|^2 =  1.523E-09

      iter #   2 total cpu time : 34440.9 secs   av.it.:  15.9
      thresh= 3.903E-06 alpha_mix =  0.700 |ddv_scf|^2 =  7.048E-10

      iter #   3 total cpu time : 34526.8 secs   av.it.:  14.9
      thresh= 2.655E-06 alpha_mix =  0.700 |ddv_scf|^2 =  1.117E-11

      iter #   4 total cpu time : 34620.4 secs   av.it.:  15.0
      thresh= 3.342E-07 alpha_mix =  0.700 |ddv_scf|^2 =  9.747E-13

      iter #   5 total cpu time : 34714.0 secs   av.it.:  15.2
      thresh= 9.873E-08 alpha_mix =  0.700 |ddv_scf|^2 =  5.108E-14

      iter #   6 total cpu time : 34807.8 secs   av.it.:  15.1
      thresh= 2.260E-08 alpha_mix =  0.700 |ddv_scf|^2 =  1.748E-15

     End of self-consistent calculation

     Convergence has been achieved 


     Representation #  59 mode #  60

     Self-consistent Calculation

      iter #   1 total cpu time : 34873.9 secs   av.it.:   3.0
      thresh= 1.000E-02 alpha_mix =  0.700 |ddv_scf|^2 =  2.080E-09

      iter #   2 total cpu time : 34966.8 secs   av.it.:  15.9
      thresh= 4.560E-06 alpha_mix =  0.700 |ddv_scf|^2 =  1.181E-09

      iter #   3 total cpu time : 35055.2 secs   av.it.:  14.9
      thresh= 3.436E-06 alpha_mix =  0.700 |ddv_scf|^2 =  5.256E-12

      iter #   4 total cpu time : 35147.5 secs   av.it.:  15.9
      thresh= 2.293E-07 alpha_mix =  0.700 |ddv_scf|^2 =  1.596E-12

      iter #   5 total cpu time : 35237.2 secs   av.it.:  15.0
      thresh= 1.263E-07 alpha_mix =  0.700 |ddv_scf|^2 =  4.464E-14

      iter #   6 total cpu time : 35329.3 secs   av.it.:  15.8
      thresh= 2.113E-08 alpha_mix =  0.700 |ddv_scf|^2 =  2.287E-15

     End of self-consistent calculation

     Convergence has been achieved 


     Representation #  60 mode #  61

     Self-consistent Calculation

      iter #   1 total cpu time : 35395.5 secs   av.it.:   3.1
      thresh= 1.000E-02 alpha_mix =  0.700 |ddv_scf|^2 =  5.652E-09

      iter #   2 total cpu time : 35486.3 secs   av.it.:  15.3
      thresh= 7.518E-06 alpha_mix =  0.700 |ddv_scf|^2 =  3.489E-09

      iter #   3 total cpu time : 35571.8 secs   av.it.:  14.9
      thresh= 5.907E-06 alpha_mix =  0.700 |ddv_scf|^2 =  1.329E-11

      iter #   4 total cpu time : 35660.0 secs   av.it.:  15.0
      thresh= 3.646E-07 alpha_mix =  0.700 |ddv_scf|^2 =  1.148E-12

      iter #   5 total cpu time : 35749.5 secs   av.it.:  15.4
      thresh= 1.071E-07 alpha_mix =  0.700 |ddv_scf|^2 =  8.226E-14

      iter #   6 total cpu time : 35836.8 secs   av.it.:  15.0
      thresh= 2.868E-08 alpha_mix =  0.700 |ddv_scf|^2 =  1.600E-15

     End of self-consistent calculation

     Convergence has been achieved 


     Representation #  61 mode #  62

     Self-consistent Calculation

      iter #   1 total cpu time : 35907.8 secs   av.it.:   4.5
      thresh= 1.000E-02 alpha_mix =  0.700 |ddv_scf|^2 =  9.302E-09

      iter #   2 total cpu time : 36000.0 secs   av.it.:  15.9
      thresh= 9.645E-06 alpha_mix =  0.700 |ddv_scf|^2 =  4.372E-09

      iter #   3 total cpu time : 36087.8 secs   av.it.:  14.9
      thresh= 6.612E-06 alpha_mix =  0.700 |ddv_scf|^2 =  8.451E-11

      iter #   4 total cpu time : 36176.9 secs   av.it.:  15.0
      thresh= 9.193E-07 alpha_mix =  0.700 |ddv_scf|^2 =  3.718E-12

      iter #   5 total cpu time : 36268.1 secs   av.it.:  15.5
      thresh= 1.928E-07 alpha_mix =  0.700 |ddv_scf|^2 =  6.341E-13

      iter #   6 total cpu time : 36358.6 secs   av.it.:  15.3
      thresh= 7.963E-08 alpha_mix =  0.700 |ddv_scf|^2 =  7.684E-15

     End of self-consistent calculation

     Convergence has been achieved 


     Representation #  62 mode #  63

     Self-consistent Calculation

[...]

      iter #   3 total cpu time :******** secs   av.it.:  15.0
      thresh= 6.065E-06 alpha_mix =  0.700 |ddv_scf|^2 =  3.727E-11

      iter #   4 total cpu time :******** secs   av.it.:  15.0
      thresh= 6.105E-07 alpha_mix =  0.700 |ddv_scf|^2 =  3.332E-12

      iter #   5 total cpu time :******** secs   av.it.:  15.0
      thresh= 1.825E-07 alpha_mix =  0.700 |ddv_scf|^2 =  1.618E-13

      iter #   6 total cpu time :******** secs   av.it.:  15.3
      thresh= 4.023E-08 alpha_mix =  0.700 |ddv_scf|^2 =  1.333E-14

      iter #   7 total cpu time :******** secs   av.it.:  15.8
      thresh= 1.155E-08 alpha_mix =  0.700 |ddv_scf|^2 =  1.250E-15

     End of self-consistent calculation

     Convergence has been achieved 


     Representation #  64 mode #  64

     Self-consistent Calculation

      iter #   1 total cpu time :******** secs   av.it.:   3.2
      thresh= 1.000E-02 alpha_mix =  0.700 |ddv_scf|^2 =  4.555E-09

      iter #   2 total cpu time :******** secs   av.it.:  16.0
      thresh= 6.749E-06 alpha_mix =  0.700 |ddv_scf|^2 =  3.258E-09

      iter #   3 total cpu time :******** secs   av.it.:  15.0
      thresh= 5.708E-06 alpha_mix =  0.700 |ddv_scf|^2 =  2.987E-11

      iter #   4 total cpu time :******** secs   av.it.:  15.0
      thresh= 5.466E-07 alpha_mix =  0.700 |ddv_scf|^2 =  4.202E-12

      iter #   5 total cpu time :******** secs   av.it.:  15.0
      thresh= 2.050E-07 alpha_mix =  0.700 |ddv_scf|^2 =  1.577E-13

      iter #   6 total cpu time :******** secs   av.it.:  15.4
      thresh= 3.971E-08 alpha_mix =  0.700 |ddv_scf|^2 =  1.676E-14

      iter #   7 total cpu time :******** secs   av.it.:  15.3
      thresh= 1.295E-08 alpha_mix =  0.700 |ddv_scf|^2 =  1.908E-15

     End of self-consistent calculation

     Convergence has been achieved 


     Representation #  65 mode #  65

     Self-consistent Calculation

      iter #   1 total cpu time :******** secs   av.it.:   3.0
      thresh= 1.000E-02 alpha_mix =  0.700 |ddv_scf|^2 =  4.283E-09

      iter #   2 total cpu time :******** secs   av.it.:  15.3
      thresh= 6.544E-06 alpha_mix =  0.700 |ddv_scf|^2 =  3.949E-09

      iter #   3 total cpu time :******** secs   av.it.:  14.1
      thresh= 6.284E-06 alpha_mix =  0.700 |ddv_scf|^2 =  2.805E-11

      iter #   4 total cpu time :******** secs   av.it.:  15.1
      thresh= 5.297E-07 alpha_mix =  0.700 |ddv_scf|^2 =  2.038E-12

      iter #   5 total cpu time :******** secs   av.it.:  15.5
      thresh= 1.428E-07 alpha_mix =  0.700 |ddv_scf|^2 =  1.279E-13

      iter #   6 total cpu time :******** secs   av.it.:  15.1
      thresh= 3.576E-08 alpha_mix =  0.700 |ddv_scf|^2 =  9.903E-15

     End of self-consistent calculation

     Convergence has been achieved 


     Representation #  66 mode #  66

     Self-consistent Calculation

      iter #   1 total cpu time :******** secs   av.it.:   3.0
      thresh= 1.000E-02 alpha_mix =  0.700 |ddv_scf|^2 =  3.674E-09

      iter #   2 total cpu time :******** secs   av.it.:  16.0
      thresh= 6.061E-06 alpha_mix =  0.700 |ddv_scf|^2 =  2.399E-09

      iter #   3 total cpu time :******** secs   av.it.:  15.0
      thresh= 4.898E-06 alpha_mix =  0.700 |ddv_scf|^2 =  4.586E-11

      iter #   4 total cpu time :******** secs   av.it.:  15.0
      thresh= 6.772E-07 alpha_mix =  0.700 |ddv_scf|^2 =  2.885E-12

      iter #   5 total cpu time :******** secs   av.it.:  15.0
      thresh= 1.699E-07 alpha_mix =  0.700 |ddv_scf|^2 =  9.931E-14

      iter #   6 total cpu time :******** secs   av.it.:  15.9
      thresh= 3.151E-08 alpha_mix =  0.700 |ddv_scf|^2 =  1.118E-14

      iter #   7 total cpu time :******** secs   av.it.:  15.3
      thresh= 1.057E-08 alpha_mix =  0.700 |ddv_scf|^2 =  9.114E-16

     End of self-consistent calculation

     Convergence has been achieved 

     Number of q in the star =    4
     List of q in the star:
          1   0.333333333   0.329528306   0.494168862
          2   0.333333333  -0.329528306  -0.494168862
          3  -0.333333333   0.329528306  -0.494168862
          4  -0.333333333  -0.329528306   0.494168862
     In addition there is the -q list: 
          1  -0.333333333  -0.329528306  -0.494168862
          2  -0.333333333   0.329528306   0.494168862
          3   0.333333333  -0.329528306   0.494168862
          4   0.333333333   0.329528306  -0.494168862

     Diagonalizing the dynamical matrix

     q = (    0.333333333   0.329528306   0.494168862 ) 

 **************************************************************************
     freq (    1) =       1.262636 [THz] =      42.117008 [cm-1]
     freq (    2) =       1.284828 [THz] =      42.857235 [cm-1]
     freq (    3) =       1.557668 [THz] =      51.958216 [cm-1]
     freq (    4) =       1.792841 [THz] =      59.802732 [cm-1]
     freq (    5) =       2.865151 [THz] =      95.571155 [cm-1]
     freq (    6) =       2.947664 [THz] =      98.323496 [cm-1]
     freq (    7) =       4.622033 [THz] =     154.174421 [cm-1]
     freq (    8) =       4.713790 [THz] =     157.235095 [cm-1]
     freq (    9) =       5.188448 [THz] =     173.067988 [cm-1]
     freq (   10) =       5.562749 [THz] =     185.553321 [cm-1]
     freq (   11) =       5.955745 [THz] =     198.662272 [cm-1]
     freq (   12) =       6.068786 [THz] =     202.432895 [cm-1]
     freq (   13) =       6.368903 [THz] =     212.443725 [cm-1]
     freq (   14) =       6.643236 [THz] =     221.594503 [cm-1]
     freq (   15) =       7.030280 [THz] =     234.504900 [cm-1]
     freq (   16) =       7.153397 [THz] =     238.611646 [cm-1]
     freq (   17) =       8.052148 [THz] =     268.590757 [cm-1]
     freq (   18) =       8.223022 [THz] =     274.290499 [cm-1]
     freq (   19) =       8.329550 [THz] =     277.843875 [cm-1]
     freq (   20) =       8.385096 [THz] =     279.696695 [cm-1]
     freq (   21) =       8.773948 [THz] =     292.667393 [cm-1]
     freq (   22) =       8.871154 [THz] =     295.909837 [cm-1]
     freq (   23) =       9.062790 [THz] =     302.302145 [cm-1]
     freq (   24) =       9.378546 [THz] =     312.834619 [cm-1]
     freq (   25) =       9.766039 [THz] =     325.760008 [cm-1]
     freq (   26) =       9.940065 [THz] =     331.564883 [cm-1]
     freq (   27) =      12.517259 [THz] =     417.530832 [cm-1]
     freq (   28) =      12.576669 [THz] =     419.512519 [cm-1]
     freq (   29) =      12.655119 [THz] =     422.129319 [cm-1]
     freq (   30) =      12.737676 [THz] =     424.883140 [cm-1]
     freq (   31) =      30.713980 [THz] =    1024.508079 [cm-1]
     freq (   32) =      30.719230 [THz] =    1024.683228 [cm-1]
     freq (   33) =      30.883425 [THz] =    1030.160160 [cm-1]
     freq (   34) =      30.906956 [THz] =    1030.945073 [cm-1]
     freq (   35) =      31.785484 [THz] =    1060.249614 [cm-1]
     freq (   36) =      31.804909 [THz] =    1060.897586 [cm-1]
     freq (   37) =      31.851130 [THz] =    1062.439335 [cm-1]
     freq (   38) =      31.912067 [THz] =    1064.471983 [cm-1]
     freq (   39) =      32.246221 [THz] =    1075.618150 [cm-1]
     freq (   40) =      32.279069 [THz] =    1076.713852 [cm-1]
     freq (   41) =      32.342635 [THz] =    1078.834179 [cm-1]
     freq (   42) =      32.409730 [THz] =    1081.072243 [cm-1]
     freq (   43) =      35.849603 [THz] =    1195.814046 [cm-1]
     freq (   44) =      35.883561 [THz] =    1196.946749 [cm-1]
     freq (   45) =      35.963770 [THz] =    1199.622254 [cm-1]
     freq (   46) =      35.999342 [THz] =    1200.808787 [cm-1]
     freq (   47) =      36.085325 [THz] =    1203.676870 [cm-1]
     freq (   48) =      36.095770 [THz] =    1204.025280 [cm-1]
     freq (   49) =      36.159491 [THz] =    1206.150795 [cm-1]
     freq (   50) =      36.177692 [THz] =    1206.757924 [cm-1]
     freq (   51) =      68.237665 [THz] =    2276.163501 [cm-1]
     freq (   52) =      68.252470 [THz] =    2276.657355 [cm-1]
     freq (   53) =      68.276467 [THz] =    2277.457778 [cm-1]
     freq (   54) =      68.312729 [THz] =    2278.667350 [cm-1]
     freq (   55) =      70.059927 [THz] =    2336.947616 [cm-1]
     freq (   56) =      70.071409 [THz] =    2337.330624 [cm-1]
     freq (   57) =      70.216145 [THz] =    2342.158494 [cm-1]
     freq (   58) =      70.219262 [THz] =    2342.262458 [cm-1]
     freq (   59) =      70.706407 [THz] =    2358.511871 [cm-1]
     freq (   60) =      70.715046 [THz] =    2358.800046 [cm-1]
     freq (   61) =      70.807733 [THz] =    2361.891754 [cm-1]
     freq (   62) =      70.839569 [THz] =    2362.953684 [cm-1]
     freq (   63) =      71.354089 [THz] =    2380.116226 [cm-1]
     freq (   64) =      71.369678 [THz] =    2380.636212 [cm-1]
     freq (   65) =      71.433871 [THz] =    2382.777440 [cm-1]
     freq (   66) =      71.477220 [THz] =    2384.223427 [cm-1]
 **************************************************************************

     Mode symmetry, C_1 (1)     point group:

     freq (   1-   1) =         42.1  [cm-1]   --> A                  
     freq (   2-   2) =         42.9  [cm-1]   --> A                  
     freq (   3-   3) =         52.0  [cm-1]   --> A                  
     freq (   4-   4) =         59.8  [cm-1]   --> A                  
     freq (   5-   5) =         95.6  [cm-1]   --> A                  
     freq (   6-   6) =         98.3  [cm-1]   --> A                  
     freq (   7-   7) =        154.2  [cm-1]   --> A                  
     freq (   8-   8) =        157.2  [cm-1]   --> A                  
     freq (   9-   9) =        173.1  [cm-1]   --> A                  
     freq (  10-  10) =        185.6  [cm-1]   --> A                  
     freq (  11-  11) =        198.7  [cm-1]   --> A                  
     freq (  12-  12) =        202.4  [cm-1]   --> A                  
     freq (  13-  13) =        212.4  [cm-1]   --> A                  
     freq (  14-  14) =        221.6  [cm-1]   --> A                  
     freq (  15-  15) =        234.5  [cm-1]   --> A                  
     freq (  16-  16) =        238.6  [cm-1]   --> A                  
     freq (  17-  17) =        268.6  [cm-1]   --> A                  
     freq (  18-  18) =        274.3  [cm-1]   --> A                  
     freq (  19-  19) =        277.8  [cm-1]   --> A                  
     freq (  20-  20) =        279.7  [cm-1]   --> A                  
     freq (  21-  21) =        292.7  [cm-1]   --> A                  
     freq (  22-  22) =        295.9  [cm-1]   --> A                  
     freq (  23-  23) =        302.3  [cm-1]   --> A                  
     freq (  24-  24) =        312.8  [cm-1]   --> A                  
     freq (  25-  25) =        325.8  [cm-1]   --> A                  
     freq (  26-  26) =        331.6  [cm-1]   --> A                  
     freq (  27-  27) =        417.5  [cm-1]   --> A                  
     freq (  28-  28) =        419.5  [cm-1]   --> A                  
     freq (  29-  29) =        422.1  [cm-1]   --> A                  
     freq (  30-  30) =        424.9  [cm-1]   --> A                  
     freq (  31-  31) =       1024.5  [cm-1]   --> A                  
     freq (  32-  32) =       1024.7  [cm-1]   --> A                  
     freq (  33-  33) =       1030.2  [cm-1]   --> A                  
     freq (  34-  34) =       1030.9  [cm-1]   --> A                  
     freq (  35-  35) =       1060.2  [cm-1]   --> A                  
     freq (  36-  36) =       1060.9  [cm-1]   --> A                  
     freq (  37-  37) =       1062.4  [cm-1]   --> A                  
     freq (  38-  38) =       1064.5  [cm-1]   --> A                  
     freq (  39-  39) =       1075.6  [cm-1]   --> A                  
     freq (  40-  40) =       1076.7  [cm-1]   --> A                  
     freq (  41-  41) =       1078.8  [cm-1]   --> A                  
     freq (  42-  42) =       1081.1  [cm-1]   --> A                  
     freq (  43-  43) =       1195.8  [cm-1]   --> A                  
     freq (  44-  44) =       1196.9  [cm-1]   --> A                  
     freq (  45-  45) =       1199.6  [cm-1]   --> A                  
     freq (  46-  46) =       1200.8  [cm-1]   --> A                  
     freq (  47-  47) =       1203.7  [cm-1]   --> A                  
     freq (  48-  48) =       1204.0  [cm-1]   --> A                  
     freq (  49-  49) =       1206.2  [cm-1]   --> A                  
     freq (  50-  50) =       1206.8  [cm-1]   --> A                  
     freq (  51-  51) =       2276.2  [cm-1]   --> A                  
     freq (  52-  52) =       2276.7  [cm-1]   --> A                  
     freq (  53-  53) =       2277.5  [cm-1]   --> A                  
     freq (  54-  54) =       2278.7  [cm-1]   --> A                  
     freq (  55-  55) =       2336.9  [cm-1]   --> A                  
     freq (  56-  56) =       2337.3  [cm-1]   --> A                  
     freq (  57-  57) =       2342.2  [cm-1]   --> A                  
     freq (  58-  58) =       2342.3  [cm-1]   --> A                  
     freq (  59-  59) =       2358.5  [cm-1]   --> A                  
     freq (  60-  60) =       2358.8  [cm-1]   --> A                  
     freq (  61-  61) =       2361.9  [cm-1]   --> A                  
     freq (  62-  62) =       2363.0  [cm-1]   --> A                  
     freq (  63-  63) =       2380.1  [cm-1]   --> A                  
     freq (  64-  64) =       2380.6  [cm-1]   --> A                  
     freq (  65-  65) =       2382.8  [cm-1]   --> A                  
     freq (  66-  66) =       2384.2  [cm-1]   --> A                  

     init_run     :      8.80s CPU      9.16s WALL (       7 calls)
     electrons    :   5280.76s CPU   5318.59s WALL (       7 calls)

     Called by init_run:
     wfcinit      :      0.00s CPU      0.10s WALL (       7 calls)
     potinit      :      1.04s CPU      1.13s WALL (       7 calls)
     hinit0       :      0.84s CPU      0.87s WALL (       7 calls)

     Called by electrons:
     c_bands      :   5280.76s CPU   5318.58s WALL (       7 calls)
     v_of_rho     :      0.93s CPU      0.99s WALL (       8 calls)
     newd         :      1.52s CPU      1.56s WALL (       8 calls)

     Called by c_bands:
     init_us_2    :   2444.77s CPU   2649.53s WALL (  440780 calls)
     cegterg      :   4834.38s CPU   4866.03s WALL (    2772 calls)

     Called by *egterg:
     cdiaghg      :    141.58s CPU    142.24s WALL (   31802 calls)
     h_psi        : 545863.85s CPU 550428.15s WALL ( 5580275 calls)
     s_psi        : 220572.81s CPU 221524.35s WALL (11464258 calls)
     g_psi        :     12.30s CPU     12.37s WALL (   30412 calls)

     Called by h_psi:
     h_psi:calbec :  93405.69s CPU  93893.49s WALL ( 5580275 calls)
     vloc_psi     : 342975.82s CPU 346578.00s WALL ( 5580275 calls)
     add_vuspsi   : 106756.12s CPU 107224.66s WALL ( 5580275 calls)

     General routines
     calbec       : 205360.29s CPU 206400.28s WALL (12136336 calls)
     fft          :    834.17s CPU    900.81s WALL (  101391 calls)
     ffts         :    867.99s CPU    902.19s WALL (   92630 calls)
     fftw         : 350920.77s CPU 354848.97s WALL (******** calls)
     interpolate  :     66.61s CPU     77.24s WALL (    7886 calls)
     davcio       :    847.83s CPU   1379.78s WALL ( 1888791 calls)

     Parallel routines

     PHONON       :  11d19h 6m CPU  11d21h39m WALL

     INITIALIZATION: 
     phq_setup    :      2.78s CPU      3.42s WALL (       8 calls)
     phq_init     :   4490.89s CPU   4530.71s WALL (       8 calls)

     phq_init     :   4490.89s CPU   4530.71s WALL (       8 calls)
     set_drhoc    :      0.11s CPU      0.11s WALL (      24 calls)
     init_vloc    :      0.16s CPU      0.16s WALL (       8 calls)
     init_us_1    :      0.17s CPU      0.23s WALL (       8 calls)
     init_us_2    :   2444.77s CPU   2649.53s WALL (  440780 calls)
     newd         :      1.52s CPU      1.56s WALL (       8 calls)
     dvanqq       :    181.29s CPU    183.46s WALL (       8 calls)
     drho         :   4035.61s CPU   4071.67s WALL (       8 calls)
     drhous       :   3687.08s CPU   3716.73s WALL (       8 calls)
     nldyntot     :     83.16s CPU     83.33s WALL (       8 calls)

     DYNAMICAL MATRIX:
     dynmat0      :    211.53s CPU    212.38s WALL (       8 calls)
     dynmat_us    :    163.32s CPU    164.05s WALL (       8 calls)
     addusdynmat  :      0.01s CPU      0.07s WALL (       8 calls)
     d2ionq       :     45.71s CPU     45.76s WALL (       8 calls)
     dynmatcc     :      2.34s CPU      2.40s WALL (       8 calls)
     phqscf       : *********s CPU *********s WALL (       8 calls)
     dynmatrix    :      0.82s CPU      0.95s WALL (       8 calls)

     phqscf       : *********s CPU *********s WALL (       8 calls)
     solve_linter : 998229.56s CPU *********s WALL (     527 calls)
     sth_kernel   : 972337.93s CPU 980317.20s WALL (    3651 calls)
     h_prec       :    573.80s CPU    578.49s WALL (  337688 calls)
     apply_dpot_b :  20668.87s CPU  21112.63s WALL (  290387 calls)
     ortho        :  15997.43s CPU  16112.29s WALL (  338201 calls)
     cgsolve      : 896170.53s CPU 902445.27s WALL (  338201 calls)
     incdrhoscf   :  35516.56s CPU  36097.97s WALL (  338201 calls)
                                        0.00s GPU  (  338201 calls)
     addusddens   :   1388.18s CPU   1405.97s WALL (    4171 calls)
     dv_of_drho   :    364.21s CPU    396.59s WALL (    3673 calls)
     mix_pot      :     39.59s CPU    106.66s WALL (    3651 calls)
     drhodv       :   4692.64s CPU   4739.51s WALL (     527 calls)
     psymdvscf    :   1660.07s CPU   1712.48s WALL (    1728 calls)
     newdq        :   1622.46s CPU   1633.36s WALL (    3651 calls)
     adddvscf     :   1060.11s CPU   1078.66s WALL (  290387 calls)
     drhodvus     :     23.71s CPU     45.67s WALL (     527 calls)

     dvqpsi_us    :  22966.56s CPU  23071.26s WALL (   49434 calls)
                                        0.00s GPU  (   49434 calls)
     dvqpsi_us_on :  18653.65s CPU  18693.33s WALL (   49434 calls)

     add_vuspsi   : 106756.12s CPU 107224.66s WALL ( 5580275 calls)
     addusdbec    :   7472.62s CPU   7511.91s WALL (  385853 calls)

     drhodvus     :     23.71s CPU     45.67s WALL (     527 calls)

      General routines
     calbec       : 205360.29s CPU 206400.28s WALL (12136336 calls)
     fft          :    834.17s CPU    900.81s WALL (  101391 calls)
     ffts         :    867.99s CPU    902.19s WALL (   92630 calls)
     fftw         : 350920.77s CPU 354848.97s WALL (******** calls)
     davcio       :    847.83s CPU   1379.78s WALL ( 1888791 calls)
     write_rec    :     69.69s CPU    663.99s WALL (    4178 calls)

      Additional routines
     ch_psi       : 885502.35s CPU 891632.68s WALL ( 5545701 calls)
     last         : 232538.75s CPU 233665.24s WALL ( 5545701 calls)
     Hesh         :   1485.65s CPU   1501.83s WALL ( 5545701 calls)
     ch_psi_all_k : 230969.01s CPU 232088.40s WALL ( 5545701 calls)
                                        0.00s GPU  ( 5545701 calls)
     ch_psi_calbe :  92792.37s CPU  93163.65s WALL ( 5545701 calls)
                                        0.00s GPU  ( 5545701 calls)
     h_psi_bgrp   : 545913.76s CPU 550468.00s WALL ( 5580275 calls)
     h_psi        : 545863.85s CPU 550428.15s WALL ( 5580275 calls)
     h_psi:pot    : 543271.81s CPU 547793.57s WALL ( 5580275 calls)
     h_psi:calbec :  93405.69s CPU  93893.49s WALL ( 5580275 calls)
     s_psi_bgrp   : 223089.26s CPU 224012.01s WALL (11464258 calls)
     s_psi        : 220572.81s CPU 221524.35s WALL (11464258 calls)


     PHONON       :  11d19h 6m CPU  11d21h39m WALL


   This run was terminated on:  10: 1: 7  24Jul2024            

=------------------------------------------------------------------------------=
   JOB DONE.
=------------------------------------------------------------------------------=
