
     Program PWSCF v.7.3.1 starts on 12Jul2024 at 12:17:15 

     This program is part of the open-source Quantum ESPRESSO suite
     for quantum simulation of materials; please cite
         "P. Giannozzi et al., J. Phys.:Condens. Matter 21 395502 (2009);
         "P. Giannozzi et al., J. Phys.:Condens. Matter 29 465901 (2017);
         "P. Giannozzi et al., J. Chem. Phys. 152 154105 (2020);
          URL http://www.quantum-espresso.org", 
     in publications or presentations arising from this work. More details at
     http://www.quantum-espresso.org/quote

     Parallel version (MPI), running on    24 processors

     MPI processes distributed on     1 nodes
     65091 MiB available memory on the printing compute node when the environment starts

     Waiting for input...
     Reading input from standard input

     Current dimensions of program PWSCF are:
     Max number of different atomic species (ntypx) = 10
     Max number of k-points (npk) =  40000
     Max angular momentum in pseudopotentials (lmaxx) =  4

     R & G space division:  proc/nbgrp/npool/nimage =      24
     Subspace diagonalization in iterative solution of the eigenvalue problem:
     a serial algorithm will be used


     Parallelization info
     --------------------
     sticks:   dense  smooth     PW     G-vecs:    dense   smooth      PW
     Min         451     225     61                23736     8388    1179
     Max         453     227     63                23738     8390    1180
     Sum       10843    5421   1469               569693   201343   28297

     Using Slab Decomposition


     Title: 
     pre-ph                                                                     


     bravais-lattice index     =            8
     lattice parameter (alat)  =      12.9772  a.u.
     unit-cell volume          =    1491.1840 (a.u.)^3
     number of atoms/cell      =           22
     number of atomic types    =            3
     number of electrons       =        48.00
     number of Kohn-Sham states=           24
     kinetic-energy cutoff     =     100.0000  Ry
     charge density cutoff     =     800.0000  Ry
     scf convergence threshold =      1.0E-10
     mixing beta               =       0.7000
     number of iterations used =            8  plain     mixing
     Exchange-correlation= PBESOL
                           (   1   4  10   8   0   0   0)

     celldm(1)=  12.977188  celldm(2)=   1.011547  celldm(3)=   0.674533
     celldm(4)=   0.000000  celldm(5)=   0.000000  celldm(6)=   0.000000

     crystal axes: (cart. coord. in units of alat)
               a(1) = (   1.000000   0.000000   0.000000 )  
               a(2) = (   0.000000   1.011547   0.000000 )  
               a(3) = (   0.000000   0.000000   0.674533 )  

     reciprocal axes: (cart. coord. in units 2 pi/alat)
               b(1) = (  1.000000  0.000000  0.000000 )  
               b(2) = (  0.000000  0.988585  0.000000 )  
               b(3) = (  0.000000  0.000000  1.482507 )  


     PseudoPot. # 1 for B  read from file:
     /home/mehlhorn/pseudos/b_pbesol_v1.4.uspp.F.UPF
     MD5 check sum: 369b69bef2c3aeed4453bd8b804fd6a8
     Pseudo is Ultrasoft + core correction, Zval =  3.0
     Generated by new atomic code, or converted to UPF format
     Using radial grid of  781 points,  4 beta functions with: 
                l(1) =   0
                l(2) =   0
                l(3) =   1
                l(4) =   1
     Q(r) pseudized with  8 coefficients,  rinner =    1.100   1.100   1.100


     PseudoPot. # 2 for Ba read from file:
     /home/mehlhorn/pseudos/Ba.nc.z_10.oncvpsp4.dojo.v4-sp.upf
     MD5 check sum: c10ed334bb677c0554edec7181ce9143
     Pseudo is Norm-conserving + core correction, Zval = 10.0
     Generated using ONCVPSP code by D. R. Hamann
     Using radial grid of 1938 points,  8 beta functions with: 
                l(1) =   0
                l(2) =   0
                l(3) =   1
                l(4) =   1
                l(5) =   2
                l(6) =   2
                l(7) =   3
                l(8) =   3

     PseudoPot. # 3 for H  read from file:
     /home/mehlhorn/pseudos/H_ONCV_PBEsol-1.0.upf
     MD5 check sum: 398ef8f67c0a7342c05c87c5e19ea467
     Pseudo is Norm-conserving, Zval =  1.0
     Generated using ONCVPSP code by D. R. Hamann
     Using radial grid of 1180 points,  2 beta functions with: 
                l(1) =   0
                l(2) =   0

     atomic species   valence    mass     pseudopotential
     B                 3.00    10.81100     B ( 1.00)
     Ba               10.00   137.32700     Ba( 1.00)
     H                 1.00     1.00794     H ( 1.00)

      4 Sym. Ops. (no inversion) found ( 2 have fractional translation)



   Cartesian axes

     site n.     atom                  positions (alat units)
         1        Ba     tau(   1) = (   0.5000000   0.5057734   0.3372661  )
         2        Ba     tau(   2) = (   0.0000000   0.0000000   0.6745338  )
         3        B      tau(   3) = (   0.6178438   0.2480975   0.0000018  )
         4        B      tau(   4) = (   0.3821562   0.7634494   0.0000018  )
         5        B      tau(   5) = (   0.1178438   0.2576759   0.3372648  )
         6        B      tau(   6) = (   0.8821562   0.7538710   0.3372648  )
         7        H      tau(   7) = (   0.4440304   0.2927253  -0.0000144  )
         8        H      tau(   8) = (   0.5559696   0.7188216  -0.0000144  )
         9        H      tau(   9) = (   0.9440304   0.2130481   0.3372810  )
        10        H      tau(  10) = (   0.0559696   0.7984988   0.3372810  )
        11        H      tau(  11) = (   0.7194740   0.3970761   0.0000040  )
        12        H      tau(  12) = (   0.2805260   0.6144708   0.0000040  )
        13        H      tau(  13) = (   0.2194740   0.1086973   0.3372627  )
        14        H      tau(  14) = (   0.7805260   0.9028496   0.3372627  )
        15        H      tau(  15) = (   0.6506240   0.1527213   0.5265303  )
        16        H      tau(  16) = (   0.3493760   0.8588256   0.5265303  )
        17        H      tau(  17) = (   0.1506240   0.3530521   0.4852696  )
        18        H      tau(  18) = (   0.8493760   0.6584948   0.4852696  )
        19        H      tau(  19) = (   0.3493889   0.8588246   0.1480112  )
        20        H      tau(  20) = (   0.6506111   0.1527223   0.1480112  )
        21        H      tau(  21) = (   0.8493889   0.6584958   0.1892555  )
        22        H      tau(  22) = (   0.1506111   0.3530511   0.1892555  )

     number of k points=    27
                       cart. coord. in units 2pi/alat
        k(    1) = (   0.0000000   0.0000000   0.0000000), wk =   0.0160000
        k(    2) = (   0.0000000   0.0000000   0.2965013), wk =   0.0320000
        k(    3) = (   0.0000000   0.0000000   0.5930026), wk =   0.0320000
        k(    4) = (   0.0000000   0.1977170   0.0000000), wk =   0.0320000
        k(    5) = (   0.0000000   0.1977170   0.2965013), wk =   0.0640000
        k(    6) = (   0.0000000   0.1977170   0.5930026), wk =   0.0640000
        k(    7) = (   0.0000000   0.3954340   0.0000000), wk =   0.0320000
        k(    8) = (   0.0000000   0.3954340   0.2965013), wk =   0.0640000
        k(    9) = (   0.0000000   0.3954340   0.5930026), wk =   0.0640000
        k(   10) = (   0.2000000   0.0000000   0.0000000), wk =   0.0320000
        k(   11) = (   0.2000000   0.0000000   0.2965013), wk =   0.0640000
        k(   12) = (   0.2000000   0.0000000   0.5930026), wk =   0.0640000
        k(   13) = (   0.2000000   0.1977170   0.0000000), wk =   0.0640000
        k(   14) = (   0.2000000   0.1977170   0.2965013), wk =   0.1280000
        k(   15) = (   0.2000000   0.1977170   0.5930026), wk =   0.1280000
        k(   16) = (   0.2000000   0.3954340   0.0000000), wk =   0.0640000
        k(   17) = (   0.2000000   0.3954340   0.2965013), wk =   0.1280000
        k(   18) = (   0.2000000   0.3954340   0.5930026), wk =   0.1280000
        k(   19) = (   0.4000000   0.0000000   0.0000000), wk =   0.0320000
        k(   20) = (   0.4000000   0.0000000   0.2965013), wk =   0.0640000
        k(   21) = (   0.4000000   0.0000000   0.5930026), wk =   0.0640000
        k(   22) = (   0.4000000   0.1977170   0.0000000), wk =   0.0640000
        k(   23) = (   0.4000000   0.1977170   0.2965013), wk =   0.1280000
        k(   24) = (   0.4000000   0.1977170   0.5930026), wk =   0.1280000
        k(   25) = (   0.4000000   0.3954340   0.0000000), wk =   0.0640000
        k(   26) = (   0.4000000   0.3954340   0.2965013), wk =   0.1280000
        k(   27) = (   0.4000000   0.3954340   0.5930026), wk =   0.1280000

     Dense  grid:   569693 G-vectors     FFT dimensions: ( 120, 120,  80)

     Smooth grid:   201343 G-vectors     FFT dimensions: (  90,  90,  60)

     Estimated max dynamical RAM per process >      68.56 MB

     Estimated total dynamical RAM >       1.61 GB

     Initial potential from superposition of free atoms

     starting charge      47.9682, renormalised to      48.0000
     Starting wfcs are   42 randomized atomic wfcs

     total cpu time spent up to now is       12.2 secs

     Self-consistent Calculation

     iteration #  1     ecut=   100.00 Ry     beta= 0.70
     Davidson diagonalization with overlap
     ethr =  1.00E-02,  avg # of iterations =  2.0

     total cpu time spent up to now is       28.8 secs

     total energy              =    -155.91827207 Ry
     estimated scf accuracy    <       2.12313767 Ry

     iteration #  2     ecut=   100.00 Ry     beta= 0.70
     Davidson diagonalization with overlap
     ethr =  4.42E-03,  avg # of iterations =  2.0

     total cpu time spent up to now is       44.8 secs

     total energy              =    -156.40660466 Ry
     estimated scf accuracy    <       0.37758017 Ry

     iteration #  3     ecut=   100.00 Ry     beta= 0.70
     Davidson diagonalization with overlap
     ethr =  7.87E-04,  avg # of iterations =  2.0

     total cpu time spent up to now is       60.7 secs

     total energy              =    -156.46978855 Ry
     estimated scf accuracy    <       0.00491490 Ry

     iteration #  4     ecut=   100.00 Ry     beta= 0.70
     Davidson diagonalization with overlap
     ethr =  1.02E-05,  avg # of iterations =  5.1

     total cpu time spent up to now is       83.9 secs

     total energy              =    -156.47281780 Ry
     estimated scf accuracy    <       0.00176603 Ry

     iteration #  5     ecut=   100.00 Ry     beta= 0.70
     Davidson diagonalization with overlap
     ethr =  3.68E-06,  avg # of iterations =  3.4

     total cpu time spent up to now is      100.5 secs

     total energy              =    -156.47342735 Ry
     estimated scf accuracy    <       0.00017948 Ry

     iteration #  6     ecut=   100.00 Ry     beta= 0.70
     Davidson diagonalization with overlap
     ethr =  3.74E-07,  avg # of iterations =  4.3

     total cpu time spent up to now is      119.2 secs

     total energy              =    -156.47349722 Ry
     estimated scf accuracy    <       0.00000108 Ry

     iteration #  7     ecut=   100.00 Ry     beta= 0.70
     Davidson diagonalization with overlap
     ethr =  2.25E-09,  avg # of iterations = 10.5

     total cpu time spent up to now is      161.3 secs

     total energy              =    -156.47350796 Ry
     estimated scf accuracy    <       0.00000087 Ry

     iteration #  8     ecut=   100.00 Ry     beta= 0.70
     Davidson diagonalization with overlap
     ethr =  1.82E-09,  avg # of iterations =  2.0

     total cpu time spent up to now is      177.2 secs

     total energy              =    -156.47350811 Ry
     estimated scf accuracy    <       0.00000002 Ry

     iteration #  9     ecut=   100.00 Ry     beta= 0.70
     Davidson diagonalization with overlap
     ethr =  4.59E-11,  avg # of iterations =  5.8

     total cpu time spent up to now is      198.8 secs

     total energy              =    -156.47350813 Ry
     estimated scf accuracy    <          3.0E-09 Ry

     iteration # 10     ecut=   100.00 Ry     beta= 0.70
     Davidson diagonalization with overlap
     ethr =  6.18E-12,  avg # of iterations =  3.7

     total cpu time spent up to now is      217.6 secs

     total energy              =    -156.47350814 Ry
     estimated scf accuracy    <          1.0E-10 Ry

     iteration # 11     ecut=   100.00 Ry     beta= 0.70
     Davidson diagonalization with overlap
     ethr =  2.11E-13,  avg # of iterations =  6.4

     total cpu time spent up to now is      245.9 secs

     End of self-consistent calculation

          k = 0.0000 0.0000 0.0000 ( 25179 PWs)   bands (ev):

   -24.1868 -24.1794  -9.7026  -9.6324  -9.4449  -9.4070  -9.3659  -9.3101
    -6.1971  -5.2984  -4.6853  -4.5729  -1.8945  -0.9702  -0.9499  -0.5920
    -0.3418  -0.2793  -0.1492  -0.1369   0.1387   0.4728   0.4768   0.5167

          k = 0.0000 0.0000 0.2965 ( 25202 PWs)   bands (ev):

   -24.1816 -24.1756  -9.6406  -9.5854  -9.5462  -9.5164  -9.4310  -9.4038
    -5.8554  -5.1017  -4.8051  -4.7190  -1.6138  -1.2451  -0.8281  -0.8234
    -0.5176  -0.4269  -0.1499   0.0115   0.2652   0.3348   0.3575   0.4994

          k = 0.0000 0.0000 0.5930 ( 25192 PWs)   bands (ev):

   -24.1723 -24.1700  -9.8026  -9.7968  -9.5133  -9.4905  -9.4275  -9.4167
    -5.2259  -4.9972  -4.9681  -4.9090  -1.4023  -1.3424  -1.2293  -1.0512
    -0.4447  -0.4134  -0.0917   0.0076   0.2289   0.2576   0.3745   0.4026

          k = 0.0000 0.1977 0.0000 ( 25190 PWs)   bands (ev):

   -24.1861 -24.1801  -9.6852  -9.6143  -9.4749  -9.4286  -9.3605  -9.3153
    -6.0787  -5.2559  -4.8503  -4.6423  -1.6811  -1.0936  -1.0333  -0.3839
    -0.3164  -0.2744  -0.1776   0.0024   0.1639   0.2765   0.4179   0.4653

          k = 0.0000 0.1977 0.2965 ( 25176 PWs)   bands (ev):

   -24.1810 -24.1761  -9.6390  -9.5714  -9.5393  -9.5308  -9.4312  -9.4186
    -5.7686  -5.0750  -4.9206  -4.7600  -1.4699  -1.2722  -1.0550  -0.5405
    -0.4330  -0.3740  -0.3179   0.0945   0.2457   0.3213   0.3359   0.3947

          k = 0.0000 0.1977 0.5930 ( 25209 PWs)   bands (ev):

   -24.1721 -24.1703  -9.8111  -9.8057  -9.4954  -9.4804  -9.4279  -9.4222
    -5.3207  -5.1895  -4.8450  -4.7396  -1.4457  -1.3779  -1.2109  -0.9716
    -0.3814  -0.2666  -0.1155   0.0090   0.1703   0.2132   0.3149   0.3707

          k = 0.0000 0.3954 0.0000 ( 25160 PWs)   bands (ev):

   -24.1843 -24.1820  -9.6357  -9.5831  -9.5269  -9.4829  -9.3464  -9.3291
    -5.7625  -5.3638  -4.9896  -4.8147  -1.3454  -1.2428  -0.8917  -0.3645
    -0.3549  -0.3029  -0.0582   0.0746   0.1211   0.1772   0.2879   0.3778

          k = 0.0000 0.3954 0.2965 ( 25178 PWs)   bands (ev):

   -24.1795 -24.1776  -9.6236  -9.5875  -9.5318  -9.5081  -9.4477  -9.4426
    -5.5338  -5.2233  -4.9716  -4.8605  -1.2993  -1.2834  -1.0151  -0.6405
    -0.3410  -0.2789  -0.1638   0.0881   0.0979   0.1495   0.3600   0.3605

          k = 0.0000 0.3954 0.5930 ( 25202 PWs)   bands (ev):

   -24.1715 -24.1708  -9.8225  -9.8201  -9.4606  -9.4590  -9.4373  -9.4357
    -5.3978  -5.3535  -4.6919  -4.6435  -1.5087  -1.4942  -0.9968  -0.8597
    -0.2780  -0.2127  -0.0894  -0.0310   0.0778   0.1507   0.2348   0.3413

          k = 0.2000 0.0000 0.0000 ( 25159 PWs)   bands (ev):

   -24.1861 -24.1801  -9.6800  -9.6194  -9.4699  -9.4369  -9.3605  -9.3153
    -6.0850  -5.3207  -4.7100  -4.6688  -1.7670  -0.8913  -0.8066  -0.8062
    -0.2442  -0.1732  -0.1552  -0.1423   0.0964   0.1917   0.4638   0.4773

          k = 0.2000 0.0000 0.2965 ( 25172 PWs)   bands (ev):

   -24.1810 -24.1761  -9.6236  -9.6012  -9.5355  -9.5207  -9.4457  -9.4078
    -5.7601  -5.1044  -4.8259  -4.8055  -1.5258  -1.2491  -0.9595  -0.6787
    -0.5061  -0.3623  -0.1686   0.0528   0.0821   0.3130   0.4202   0.4575

          k = 0.2000 0.0000 0.5930 ( 25208 PWs)   bands (ev):

   -24.1721 -24.1703  -9.8132  -9.8081  -9.5015  -9.4752  -9.4333  -9.4173
    -5.2200  -5.0589  -4.9608  -4.8370  -1.6722  -1.5033  -1.0879  -0.8152
    -0.4059  -0.2250  -0.0702  -0.0140   0.1699   0.2723   0.2871   0.4146

          k = 0.2000 0.1977 0.0000 ( 25148 PWs)   bands (ev):

   -24.1855 -24.1807  -9.6900  -9.5856  -9.5228  -9.4165  -9.3561  -9.3195
    -5.9904  -5.2973  -4.8722  -4.6809  -1.5870  -1.0784  -0.9155  -0.5075
    -0.3288  -0.2701  -0.0299   0.0078   0.0871   0.1552   0.3438   0.4394

          k = 0.2000 0.1977 0.2965 ( 25172 PWs)   bands (ev):

   -24.1805 -24.1766  -9.6330  -9.5860  -9.5564  -9.5067  -9.4476  -9.4093
    -5.6864  -5.0732  -4.9652  -4.8027  -1.4234  -1.2574  -1.0704  -0.5657
    -0.4631  -0.3279  -0.1894   0.0446   0.1169   0.2724   0.3651   0.4354

          k = 0.2000 0.1977 0.5930 ( 25206 PWs)   bands (ev):

   -24.1719 -24.1704  -9.8208  -9.8020  -9.5096  -9.4549  -9.4402  -9.4204
    -5.3089  -5.1143  -4.9220  -4.7260  -1.6527  -1.5054  -1.0563  -0.8534
    -0.3581  -0.1921  -0.0903   0.0406   0.1111   0.2361   0.2894   0.4038

          k = 0.2000 0.3954 0.0000 ( 25167 PWs)   bands (ev):

   -24.1840 -24.1822  -9.6755  -9.6223  -9.4946  -9.4365  -9.3446  -9.3306
    -5.7350  -5.4162  -4.9584  -4.8141  -1.2859  -1.2026  -0.8543  -0.3944
    -0.3706  -0.3654  -0.1469   0.1353   0.1447   0.1992   0.2559   0.3148

          k = 0.2000 0.3954 0.2965 ( 25191 PWs)   bands (ev):

   -24.1793 -24.1778  -9.6315  -9.6058  -9.5418  -9.5068  -9.4411  -9.4192
    -5.4864  -5.2179  -4.9893  -4.8827  -1.3265  -1.2652  -1.0004  -0.6937
    -0.3230  -0.2435  -0.1588   0.0535   0.1058   0.1889   0.3327   0.3654

          k = 0.2000 0.3954 0.5930 ( 25198 PWs)   bands (ev):

   -24.1715 -24.1709  -9.8191  -9.8079  -9.4967  -9.4657  -9.4335  -9.4239
    -5.3518  -5.2794  -4.7544  -4.6767  -1.6057  -1.5377  -0.9766  -0.8853
    -0.3269  -0.2066  -0.0657   0.0591   0.1401   0.2072   0.2531   0.3547

          k = 0.4000 0.0000 0.0000 ( 25124 PWs)   bands (ev):

   -24.1842 -24.1819  -9.6209  -9.5842  -9.5285  -9.5032  -9.3464  -9.3292
    -5.7989  -5.4804  -4.7827  -4.7650  -1.4680  -1.1276  -0.6791  -0.4062
    -0.3025  -0.1737  -0.1647  -0.1262  -0.0241  -0.0103   0.2768   0.3679

          k = 0.4000 0.0000 0.2965 ( 25172 PWs)   bands (ev):

   -24.1795 -24.1776  -9.6053  -9.5924  -9.5586  -9.5182  -9.4527  -9.4253
    -5.5127  -5.2256  -4.9054  -4.8748  -1.3720  -1.1922  -1.0611  -0.6899
    -0.4063  -0.2240  -0.2231  -0.1296   0.1346   0.2469   0.3994   0.4112

          k = 0.4000 0.0000 0.5930 ( 25178 PWs)   bands (ev):

   -24.1715 -24.1708  -9.8280  -9.8259  -9.4758  -9.4507  -9.4455  -9.4246
    -5.2005  -5.1499  -4.8746  -4.8130  -1.8341  -1.7651  -0.8134  -0.6444
    -0.3105  -0.1837  -0.1162   0.0034   0.1590   0.2596   0.3217   0.3714

          k = 0.4000 0.1977 0.0000 ( 25177 PWs)   bands (ev):

   -24.1840 -24.1822  -9.6727  -9.6193  -9.5005  -9.4416  -9.3446  -9.3306
    -5.7599  -5.4824  -4.8512  -4.7664  -1.3663  -1.1469  -0.6664  -0.4571
    -0.3261  -0.2954  -0.2541  -0.0425   0.0515   0.1154   0.2547   0.3695

          k = 0.4000 0.1977 0.2965 ( 25163 PWs)   bands (ev):

   -24.1793 -24.1778  -9.6261  -9.6055  -9.5531  -9.5145  -9.4388  -9.4151
    -5.4737  -5.2191  -4.9569  -4.8828  -1.3526  -1.2173  -1.0542  -0.7274
    -0.3656  -0.2038  -0.1589  -0.0628   0.1146   0.2240   0.3517   0.3988

          k = 0.4000 0.1977 0.5930 ( 25182 PWs)   bands (ev):

   -24.1714 -24.1709  -9.8227  -9.8116  -9.4990  -9.4682  -9.4323  -9.4223
    -5.2345  -5.1110  -4.9084  -4.7781  -1.7884  -1.7283  -0.8490  -0.7649
    -0.3013  -0.1798  -0.1088   0.0150   0.1907   0.2476   0.3364   0.4126

          k = 0.4000 0.3954 0.0000 ( 25175 PWs)   bands (ev):

   -24.1834 -24.1827  -9.7034  -9.6835  -9.4335  -9.4092  -9.3400  -9.3347
    -5.6544  -5.5348  -4.8894  -4.8329  -1.1771  -1.1389  -0.7429  -0.5461
    -0.4227  -0.4102  -0.1538   0.0406   0.1937   0.2179   0.2184   0.2720

          k = 0.4000 0.3954 0.2965 ( 25203 PWs)   bands (ev):

   -24.1788 -24.1782  -9.6435  -9.6347  -9.5360  -9.5201  -9.4146  -9.4049
    -5.3715  -5.2569  -4.9894  -4.9370  -1.3140  -1.2559  -1.0081  -0.8664
    -0.1978  -0.1385  -0.0788   0.0324   0.0838   0.2057   0.2471   0.3218

          k = 0.4000 0.3954 0.5930 ( 25183 PWs)   bands (ev):

   -24.1713 -24.1710  -9.8040  -9.7961  -9.5183  -9.5022  -9.4233  -9.4214
    -5.2249  -5.1602  -4.8522  -4.7846  -1.6811  -1.6491  -0.9998  -0.9827
    -0.2153  -0.1175   0.0133   0.0349   0.1753   0.1915   0.3629   0.3984

     highest occupied level (ev):     0.5167

!    total energy              =    -156.47350814 Ry
     estimated scf accuracy    <          1.3E-11 Ry

     The total energy is the sum of the following terms:
     one-electron contribution =     -26.32866154 Ry
     hartree contribution      =      27.06286157 Ry
     xc contribution           =     -49.08416736 Ry
     ewald contribution        =    -108.12354081 Ry

     convergence has been achieved in  11 iterations

     Writing all to output data dir ./pwscf.save/ :
     XML data file, charge density, pseudopotentials, collected wavefunctions

     init_run     :     10.34s CPU     11.82s WALL (       1 calls)
     electrons    :    231.97s CPU    233.76s WALL (       1 calls)

     Called by init_run:
     wfcinit      :      7.81s CPU      7.88s WALL (       1 calls)
     potinit      :      0.58s CPU      1.05s WALL (       1 calls)
     hinit0       :      1.03s CPU      1.93s WALL (       1 calls)

     Called by electrons:
     c_bands      :    207.86s CPU    209.19s WALL (      11 calls)
     sum_band     :     20.39s CPU     20.69s WALL (      11 calls)
     v_of_rho     :      1.54s CPU      1.58s WALL (      12 calls)
     newd         :      2.14s CPU      2.17s WALL (      12 calls)
     mix_rho      :      0.21s CPU      0.23s WALL (      11 calls)

     Called by c_bands:
     init_us_2    :      3.88s CPU      3.95s WALL (     621 calls)
     cegterg      :    188.48s CPU    189.74s WALL (     297 calls)

     Called by *egterg:
     cdiaghg      :      3.06s CPU      3.07s WALL (    1573 calls)
     h_psi        :    136.26s CPU    137.33s WALL (    1600 calls)
     s_psi        :     25.32s CPU     25.42s WALL (    1600 calls)
     g_psi        :      0.53s CPU      0.53s WALL (    1276 calls)

     Called by h_psi:
     h_psi:calbec :     22.58s CPU     22.68s WALL (    1600 calls)
     vloc_psi     :     87.76s CPU     88.62s WALL (    1600 calls)
     add_vuspsi   :     25.49s CPU     25.61s WALL (    1600 calls)

     General routines
     calbec       :     28.26s CPU     28.39s WALL (    1897 calls)
     fft          :      1.69s CPU      2.62s WALL (     154 calls)
     ffts         :      0.46s CPU      0.92s WALL (      23 calls)
     fftw         :     86.76s CPU     87.56s WALL (   62308 calls)
     interpolate  :      0.51s CPU      0.98s WALL (      12 calls)

     Parallel routines

     PWSCF        :   4m 3.20s CPU   4m 7.24s WALL


   This run was terminated on:  12:21:23  12Jul2024            

=------------------------------------------------------------------------------=
   JOB DONE.
=------------------------------------------------------------------------------=
