
     Program PWSCF v.7.3.1 starts on 12Jul2024 at 14:14: 7 

     This program is part of the open-source Quantum ESPRESSO suite
     for quantum simulation of materials; please cite
         "P. Giannozzi et al., J. Phys.:Condens. Matter 21 395502 (2009);
         "P. Giannozzi et al., J. Phys.:Condens. Matter 29 465901 (2017);
         "P. Giannozzi et al., J. Chem. Phys. 152 154105 (2020);
          URL http://www.quantum-espresso.org", 
     in publications or presentations arising from this work. More details at
     http://www.quantum-espresso.org/quote

     Parallel version (MPI), running on    12 processors

     MPI processes distributed on     1 nodes
     62261 MiB available memory on the printing compute node when the environment starts

     Waiting for input...
     Reading input from standard input

     Current dimensions of program PWSCF are:
     Max number of different atomic species (ntypx) = 10
     Max number of k-points (npk) =  40000
     Max angular momentum in pseudopotentials (lmaxx) =  4

     R & G space division:  proc/nbgrp/npool/nimage =      12
     Subspace diagonalization in iterative solution of the eigenvalue problem:
     a serial algorithm will be used


     Parallelization info
     --------------------
     sticks:   dense  smooth     PW     G-vecs:    dense   smooth      PW
     Min         866     433    120                45444    16061    2326
     Max         867     434    121                45447    16064    2327
     Sum       10401    5203   1441               545347   192749   27913

     Using Slab Decomposition


     Title: 
     volume variation                                                           


     bravais-lattice index     =            8
     lattice parameter (alat)  =      12.6192  a.u.
     unit-cell volume          =    1426.9703 (a.u.)^3
     number of atoms/cell      =           22
     number of atomic types    =            3
     number of electrons       =        48.00
     number of Kohn-Sham states=           24
     kinetic-energy cutoff     =     100.0000  Ry
     charge density cutoff     =     800.0000  Ry
     scf convergence threshold =      1.0E-10
     mixing beta               =       0.7000
     number of iterations used =            8  plain     mixing
     energy convergence thresh.=      1.0E-05
     force convergence thresh. =      1.0E-05
     press convergence thresh. =      5.0E-01
     Exchange-correlation= PBESOL
                           (   1   4  10   8   0   0   0)
     nstep                     =          300


     celldm(1)=  12.619204  celldm(2)=   1.025571  celldm(3)=   0.692394
     celldm(4)=   0.000000  celldm(5)=   0.000000  celldm(6)=   0.000000

     crystal axes: (cart. coord. in units of alat)
               a(1) = (   1.000000   0.000000   0.000000 )  
               a(2) = (   0.000000   1.025571   0.000000 )  
               a(3) = (   0.000000   0.000000   0.692394 )  

     reciprocal axes: (cart. coord. in units 2 pi/alat)
               b(1) = (  1.000000  0.000000  0.000000 )  
               b(2) = (  0.000000  0.975067  0.000000 )  
               b(3) = (  0.000000  0.000000  1.444264 )  


     PseudoPot. # 1 for B  read from file:
     /home/mehlhorn/pseudos/b_pbesol_v1.4.uspp.F.UPF
     MD5 check sum: 369b69bef2c3aeed4453bd8b804fd6a8
     Pseudo is Ultrasoft + core correction, Zval =  3.0
     Generated by new atomic code, or converted to UPF format
     Using radial grid of  781 points,  4 beta functions with: 
                l(1) =   0
                l(2) =   0
                l(3) =   1
                l(4) =   1
     Q(r) pseudized with  8 coefficients,  rinner =    1.100   1.100   1.100


     PseudoPot. # 2 for Ba read from file:
     /home/mehlhorn/pseudos/Ba.nc.z_10.oncvpsp4.dojo.v4-sp.upf
     MD5 check sum: c10ed334bb677c0554edec7181ce9143
     Pseudo is Norm-conserving + core correction, Zval = 10.0
     Generated using ONCVPSP code by D. R. Hamann
     Using radial grid of 1938 points,  8 beta functions with: 
                l(1) =   0
                l(2) =   0
                l(3) =   1
                l(4) =   1
                l(5) =   2
                l(6) =   2
                l(7) =   3
                l(8) =   3

     PseudoPot. # 3 for H  read from file:
     /home/mehlhorn/pseudos/H_ONCV_PBEsol-1.0.upf
     MD5 check sum: 398ef8f67c0a7342c05c87c5e19ea467
     Pseudo is Norm-conserving, Zval =  1.0
     Generated using ONCVPSP code by D. R. Hamann
     Using radial grid of 1180 points,  2 beta functions with: 
                l(1) =   0
                l(2) =   0

     atomic species   valence    mass     pseudopotential
     B                 3.00    10.81100     B ( 1.00)
     Ba               10.00   137.32700     Ba( 1.00)
     H                 1.00     1.00794     H ( 1.00)

      4 Sym. Ops. (no inversion) found ( 2 have fractional translation)



   Cartesian axes

     site n.     atom                  positions (alat units)
         1        Ba     tau(   1) = (   0.5000000   0.5127855   0.3462657  )
         2        Ba     tau(   2) = (   0.0000000   0.0000000   0.6923255  )
         3        B      tau(   3) = (   0.6102570   0.2453190   0.0000455  )
         4        B      tau(   4) = (   0.3897430   0.7802519   0.0000455  )
         5        B      tau(   5) = (   0.1102570   0.2674665   0.3461516  )
         6        B      tau(   6) = (   0.8897430   0.7581045   0.3461516  )
         7        H      tau(   7) = (   0.4340973   0.2996264   0.0001599  )
         8        H      tau(   8) = (   0.5659027   0.7259445   0.0001599  )
         9        H      tau(   9) = (   0.9340973   0.2131590   0.3460372  )
        10        H      tau(  10) = (   0.0659027   0.8124119   0.3460372  )
        11        H      tau(  11) = (   0.7220603   0.3933629  -0.0000058  )
        12        H      tau(  12) = (   0.2779397   0.6322081  -0.0000058  )
        13        H      tau(  13) = (   0.2220603   0.1194226   0.3462029  )
        14        H      tau(  14) = (   0.7779397   0.9061483   0.3462029  )
        15        H      tau(  15) = (   0.6392499   0.1457279   0.5404125  )
        16        H      tau(  16) = (   0.3607501   0.8798430   0.5404125  )
        17        H      tau(  17) = (   0.1392499   0.3670576   0.4981787  )
        18        H      tau(  18) = (   0.8607501   0.6585133   0.4981787  )
        19        H      tau(  19) = (   0.3605328   0.8798946   0.1519977  )
        20        H      tau(  20) = (   0.6394672   0.1456763   0.1519977  )
        21        H      tau(  21) = (   0.8605328   0.6584617   0.1941994  )
        22        H      tau(  22) = (   0.1394672   0.3671092   0.1941994  )

     number of k points=    27
                       cart. coord. in units 2pi/alat
        k(    1) = (   0.0000000   0.0000000   0.0000000), wk =   0.0312500
        k(    2) = (   0.0000000   0.0000000   0.3610660), wk =   0.0625000
        k(    3) = (   0.0000000   0.0000000  -0.7221320), wk =   0.0312500
        k(    4) = (   0.0000000   0.2437667   0.0000000), wk =   0.0625000
        k(    5) = (   0.0000000   0.2437667   0.3610660), wk =   0.1250000
        k(    6) = (   0.0000000   0.2437667  -0.7221320), wk =   0.0625000
        k(    7) = (   0.0000000  -0.4875333   0.0000000), wk =   0.0312500
        k(    8) = (   0.0000000  -0.4875333   0.3610660), wk =   0.0625000
        k(    9) = (   0.0000000  -0.4875333  -0.7221320), wk =   0.0312500
        k(   10) = (   0.2500000   0.0000000   0.0000000), wk =   0.0625000
        k(   11) = (   0.2500000   0.0000000   0.3610660), wk =   0.1250000
        k(   12) = (   0.2500000   0.0000000  -0.7221320), wk =   0.0625000
        k(   13) = (   0.2500000   0.2437667   0.0000000), wk =   0.1250000
        k(   14) = (   0.2500000   0.2437667   0.3610660), wk =   0.2500000
        k(   15) = (   0.2500000   0.2437667  -0.7221320), wk =   0.1250000
        k(   16) = (   0.2500000  -0.4875333   0.0000000), wk =   0.0625000
        k(   17) = (   0.2500000  -0.4875333   0.3610660), wk =   0.1250000
        k(   18) = (   0.2500000  -0.4875333  -0.7221320), wk =   0.0625000
        k(   19) = (  -0.5000000   0.0000000   0.0000000), wk =   0.0312500
        k(   20) = (  -0.5000000   0.0000000   0.3610660), wk =   0.0625000
        k(   21) = (  -0.5000000   0.0000000  -0.7221320), wk =   0.0312500
        k(   22) = (  -0.5000000   0.2437667   0.0000000), wk =   0.0625000
        k(   23) = (  -0.5000000   0.2437667   0.3610660), wk =   0.1250000
        k(   24) = (  -0.5000000   0.2437667  -0.7221320), wk =   0.0625000
        k(   25) = (  -0.5000000  -0.4875333   0.0000000), wk =   0.0312500
        k(   26) = (  -0.5000000  -0.4875333   0.3610660), wk =   0.0625000
        k(   27) = (  -0.5000000  -0.4875333  -0.7221320), wk =   0.0312500

     Dense  grid:   545347 G-vectors     FFT dimensions: ( 120, 120,  80)

     Smooth grid:   192749 G-vectors     FFT dimensions: (  90,  90,  60)

     Estimated max dynamical RAM per process >     147.96 MB

     Estimated total dynamical RAM >       1.73 GB

     Initial potential from superposition of free atoms

     starting charge      47.9682, renormalised to      48.0000
     Starting wfcs are   42 randomized atomic wfcs

     total cpu time spent up to now is        4.6 secs

     Self-consistent Calculation

     iteration #  1     ecut=   100.00 Ry     beta= 0.70
     Davidson diagonalization with overlap
     ethr =  1.00E-02,  avg # of iterations =  2.0

     total cpu time spent up to now is       11.5 secs

     total energy              =    -155.92735116 Ry
     estimated scf accuracy    <       2.08753960 Ry

     iteration #  2     ecut=   100.00 Ry     beta= 0.70
     Davidson diagonalization with overlap
     ethr =  4.35E-03,  avg # of iterations =  2.0

     total cpu time spent up to now is       18.2 secs

     total energy              =    -156.40931532 Ry
     estimated scf accuracy    <       0.37083053 Ry

     iteration #  3     ecut=   100.00 Ry     beta= 0.70
     Davidson diagonalization with overlap
     ethr =  7.73E-04,  avg # of iterations =  2.0

     total cpu time spent up to now is       24.8 secs

     total energy              =    -156.47110861 Ry
     estimated scf accuracy    <       0.00488767 Ry

     iteration #  4     ecut=   100.00 Ry     beta= 0.70
     Davidson diagonalization with overlap
     ethr =  1.02E-05,  avg # of iterations =  5.1

     total cpu time spent up to now is       34.6 secs

     total energy              =    -156.47419813 Ry
     estimated scf accuracy    <       0.00169712 Ry

     iteration #  5     ecut=   100.00 Ry     beta= 0.70
     Davidson diagonalization with overlap
     ethr =  3.54E-06,  avg # of iterations =  3.1

     total cpu time spent up to now is       41.5 secs

     total energy              =    -156.47478505 Ry
     estimated scf accuracy    <       0.00016934 Ry

     iteration #  6     ecut=   100.00 Ry     beta= 0.70
     Davidson diagonalization with overlap
     ethr =  3.53E-07,  avg # of iterations =  4.0

     total cpu time spent up to now is       49.1 secs

     total energy              =    -156.47484819 Ry
     estimated scf accuracy    <       0.00000112 Ry

     iteration #  7     ecut=   100.00 Ry     beta= 0.70
     Davidson diagonalization with overlap
     ethr =  2.34E-09,  avg # of iterations =  9.2

     total cpu time spent up to now is       65.6 secs

     total energy              =    -156.47485753 Ry
     estimated scf accuracy    <       0.00000106 Ry

     iteration #  8     ecut=   100.00 Ry     beta= 0.70
     Davidson diagonalization with overlap
     ethr =  2.20E-09,  avg # of iterations =  2.0

     total cpu time spent up to now is       72.2 secs

     total energy              =    -156.47485778 Ry
     estimated scf accuracy    <       0.00000002 Ry

     iteration #  9     ecut=   100.00 Ry     beta= 0.70
     Davidson diagonalization with overlap
     ethr =  4.97E-11,  avg # of iterations =  5.5

     total cpu time spent up to now is       81.3 secs

     total energy              =    -156.47485780 Ry
     estimated scf accuracy    <          3.4E-09 Ry

     iteration # 10     ecut=   100.00 Ry     beta= 0.70
     Davidson diagonalization with overlap
     ethr =  6.99E-12,  avg # of iterations =  3.5

     total cpu time spent up to now is       89.0 secs

     total energy              =    -156.47485780 Ry
     estimated scf accuracy    <          7.7E-10 Ry

     iteration # 11     ecut=   100.00 Ry     beta= 0.70
     Davidson diagonalization with overlap
     ethr =  1.61E-12,  avg # of iterations =  2.8

     total cpu time spent up to now is       95.8 secs

     End of self-consistent calculation

          k = 0.0000 0.0000 0.0000 ( 24047 PWs)   bands (ev):

   -23.7767 -23.7671  -9.3483  -9.2550  -9.0480  -9.0067  -8.9776  -8.9102
    -5.9844  -5.0149  -4.3024  -4.1561  -1.6836  -0.7612  -0.6814  -0.3365
     0.0501   0.0711   0.1215   0.2396   0.4081   0.8273   0.8424   0.8850

          k = 0.0000 0.0000 0.3611 ( 24116 PWs)   bands (ev):

   -23.7684 -23.7615  -9.2473  -9.2468  -9.2216  -9.1840  -9.0288  -9.0060
    -5.4614  -4.7403  -4.4860  -4.3945  -1.2902  -1.0303  -0.5733  -0.5205
    -0.3690  -0.2467   0.1278   0.4219   0.6170   0.6600   0.7387   0.8885

          k = 0.0000 0.0000-0.7221 ( 24112 PWs)   bands (ev):

   -23.7580 -23.7580  -9.4777  -9.4775  -9.0940  -9.0939  -9.0383  -9.0383
    -4.7274  -4.7269  -4.6550  -4.6544  -1.0521  -1.0516  -1.0395  -1.0379
     0.0357   0.0365   0.1225   0.1243   0.7048   0.7049   0.7185   0.7189

          k = 0.0000 0.2438 0.0000 ( 24101 PWs)   bands (ev):

   -23.7753 -23.7685  -9.3175  -9.2224  -9.1061  -9.0447  -8.9675  -8.9199
    -5.7762  -4.9198  -4.6017  -4.2923  -1.3089  -0.8714  -0.8377  -0.0486
    -0.0315  -0.0111   0.2877   0.4131   0.4933   0.5023   0.7372   0.8134

          k = 0.0000 0.2438 0.3611 ( 24096 PWs)   bands (ev):

   -23.7674 -23.7625  -9.2960  -9.2546  -9.1682  -9.1539  -9.0389  -9.0297
    -5.3532  -4.8182  -4.5285  -4.4349  -1.0966  -1.0552  -0.8605  -0.2762
    -0.2314  -0.0362  -0.0220   0.4757   0.5497   0.6012   0.7058   0.7639

          k = 0.0000 0.2438-0.7221 ( 24076 PWs)   bands (ev):

   -23.7580 -23.7580  -9.4921  -9.4920  -9.0739  -9.0739  -9.0374  -9.0374
    -5.0294  -5.0294  -4.3406  -4.3406  -1.1788  -1.1781  -0.8550  -0.8542
     0.1139   0.1141   0.1621   0.1637   0.5261   0.5261   0.7130   0.7133

          k = 0.0000-0.4875 0.0000 ( 24118 PWs)   bands (ev):

   -23.7718 -23.7718  -9.2298  -9.2298  -9.1314  -9.1314  -8.9435  -8.9435
    -5.2575  -5.2575  -4.5928  -4.5928  -0.9965  -0.9965  -0.3594  -0.3594
    -0.1149  -0.1149   0.4055   0.4055   0.5405   0.5405   0.6651   0.6651

          k = 0.0000-0.4875 0.3611 ( 24066 PWs)   bands (ev):

   -23.7649 -23.7649  -9.2954  -9.2954  -9.1072  -9.1072  -9.0714  -9.0714
    -5.0842  -5.0842  -4.5082  -4.5082  -1.0393  -1.0393  -0.6223  -0.6223
     0.0182   0.0182   0.3061   0.3061   0.4622   0.4622   0.6805   0.6805

          k = 0.0000-0.4875-0.7221 ( 24052 PWs)   bands (ev):

   -23.7580 -23.7580  -9.5053  -9.5053  -9.0571  -9.0571  -9.0344  -9.0344
    -5.1661  -5.1661  -4.1918  -4.1918  -1.2722  -1.2722  -0.5997  -0.5997
     0.0341   0.0341   0.2375   0.2375   0.3274   0.3274   0.7506   0.7506

          k = 0.2500 0.0000 0.0000 ( 24102 PWs)   bands (ev):

   -23.7752 -23.7684  -9.3070  -9.2354  -9.0947  -9.0633  -8.9675  -8.9199
    -5.7851  -5.0431  -4.3463  -4.3190  -1.4874  -0.6119  -0.5939  -0.4656
     0.0936   0.1320   0.1972   0.2643   0.3647   0.3912   0.7903   0.8278

          k = 0.2500 0.0000 0.3611 ( 24083 PWs)   bands (ev):

   -23.7673 -23.7625  -9.2865  -9.2672  -9.1988  -9.1283  -9.0562  -9.0168
    -5.3070  -4.7215  -4.5302  -4.5210  -1.2610  -1.0122  -0.8659  -0.3259
    -0.3127  -0.0296   0.2009   0.3390   0.4818   0.6126   0.8098   0.8386

          k = 0.2500 0.0000-0.7221 ( 24120 PWs)   bands (ev):

   -23.7580 -23.7580  -9.4972  -9.4971  -9.0791  -9.0791  -9.0347  -9.0347
    -4.8217  -4.8214  -4.5280  -4.5276  -1.5337  -1.5332  -0.5821  -0.5816
     0.0306   0.0311   0.3736   0.3750   0.5015   0.5016   0.7510   0.7514

          k = 0.2500 0.2438 0.0000 ( 24073 PWs)   bands (ev):

   -23.7742 -23.7694  -9.3370  -9.2096  -9.1512  -9.0138  -8.9603  -8.9265
    -5.6386  -4.9998  -4.6008  -4.3510  -1.1897  -0.8455  -0.6287  -0.1585
    -0.0874  -0.0373   0.2739   0.4229   0.4385   0.5209   0.5910   0.7424

          k = 0.2500 0.2438 0.3611 ( 24095 PWs)   bands (ev):

   -23.7666 -23.7632  -9.2892  -9.2465  -9.2392  -9.1067  -9.0682  -9.0094
    -5.2165  -4.7638  -4.6174  -4.5145  -1.2237  -0.9789  -0.8800  -0.3133
    -0.1522   0.0293   0.1334   0.3594   0.4597   0.5750   0.7293   0.8164

          k = 0.2500 0.2438-0.7221 ( 24132 PWs)   bands (ev):

   -23.7580 -23.7580  -9.5046  -9.4794  -9.1025  -9.0590  -9.0429  -9.0352
    -5.0415  -4.8490  -4.4921  -4.2941  -1.5096  -1.4248  -0.6553  -0.5414
    -0.0204  -0.0167   0.3426   0.4112   0.5136   0.5611   0.6979   0.7288

          k = 0.2500-0.4875 0.0000 ( 24070 PWs)   bands (ev):

   -23.7718 -23.7718  -9.3103  -9.3103  -9.0511  -9.0511  -8.9431  -8.9431
    -5.2642  -5.2642  -4.5744  -4.5744  -0.9009  -0.9009  -0.3694  -0.3694
    -0.1550  -0.1550   0.3342   0.3342   0.5804   0.5804   0.5991   0.5991

          k = 0.2500-0.4875 0.3611 ( 24110 PWs)   bands (ev):

   -23.7649 -23.7649  -9.2832  -9.2832  -9.1746  -9.1746  -9.0245  -9.0245
    -4.9914  -4.9914  -4.5803  -4.5803  -1.1316  -1.1316  -0.5431  -0.5431
    -0.0079  -0.0079   0.3248   0.3248   0.4731   0.4731   0.7008   0.7008

          k = 0.2500-0.4875-0.7221 ( 24084 PWs)   bands (ev):

   -23.7580 -23.7580  -9.4879  -9.4879  -9.0832  -9.0832  -9.0415  -9.0415
    -5.0510  -5.0510  -4.2760  -4.2760  -1.3936  -1.3936  -0.6618  -0.6618
     0.0985   0.0985   0.2284   0.2284   0.5552   0.5552   0.7164   0.7164

          k =-0.5000 0.0000 0.0000 ( 24112 PWs)   bands (ev):

   -23.7718 -23.7718  -9.2052  -9.2052  -9.1655  -9.1655  -8.9435  -8.9435
    -5.3398  -5.3398  -4.4206  -4.4206  -1.0540  -1.0540  -0.2405  -0.2405
     0.1341   0.1341   0.1503   0.1503   0.2437   0.2437   0.6751   0.6751

          k =-0.5000 0.0000 0.3611 ( 24132 PWs)   bands (ev):

   -23.7649 -23.7649  -9.2997  -9.2997  -9.1310  -9.1310  -9.0557  -9.0557
    -4.9453  -4.9453  -4.5937  -4.5937  -1.1852  -1.1852  -0.6060  -0.6060
    -0.0056  -0.0056   0.1904   0.1904   0.5755   0.5755   0.7965   0.7965

          k =-0.5000 0.0000-0.7221 ( 24120 PWs)   bands (ev):

   -23.7580 -23.7580  -9.5153  -9.5153  -9.0670  -9.0670  -9.0298  -9.0298
    -4.8691  -4.8691  -4.4449  -4.4449  -1.7512  -1.7512  -0.2748  -0.2748
     0.0270   0.0270   0.1976   0.1976   0.6944   0.6944   0.7069   0.7069

          k =-0.5000 0.2438 0.0000 ( 24064 PWs)   bands (ev):

   -23.7718 -23.7718  -9.3086  -9.3086  -9.0576  -9.0576  -8.9431  -8.9431
    -5.3085  -5.3085  -4.4853  -4.4853  -0.9435  -0.9435  -0.2469  -0.2469
    -0.0864  -0.0864   0.1091   0.1091   0.4878   0.4878   0.6545   0.6545

          k =-0.5000 0.2438 0.3611 ( 24106 PWs)   bands (ev):

   -23.7649 -23.7649  -9.2860  -9.2860  -9.1791  -9.1791  -9.0233  -9.0233
    -4.9016  -4.9016  -4.6431  -4.6431  -1.1906  -1.1906  -0.5762  -0.5762
     0.0292   0.0292   0.2377   0.2377   0.5681   0.5681   0.7259   0.7259

          k =-0.5000 0.2438-0.7221 ( 24144 PWs)   bands (ev):

   -23.7579 -23.7579  -9.4934  -9.4934  -9.0860  -9.0860  -9.0407  -9.0407
    -4.8851  -4.8851  -4.4198  -4.4198  -1.6450  -1.6450  -0.4911  -0.4911
     0.0718   0.0718   0.2732   0.2732   0.6273   0.6273   0.7706   0.7706

          k =-0.5000-0.4875 0.0000 ( 24076 PWs)   bands (ev):

   -23.7718 -23.7718  -9.3573  -9.3573  -9.0042  -9.0042  -8.9427  -8.9427
    -5.2727  -5.2727  -4.5533  -4.5533  -0.7858  -0.7858  -0.4013  -0.4013
    -0.1910  -0.1910   0.3006   0.3006   0.4960   0.4960   0.6163   0.6163

          k =-0.5000-0.4875 0.3611 ( 24128 PWs)   bands (ev):

   -23.7649 -23.7649  -9.2590  -9.2590  -9.2272  -9.2272  -9.0043  -9.0043
    -4.8298  -4.8298  -4.7203  -4.7203  -1.1787  -1.1787  -0.6154  -0.6154
     0.1846   0.1846   0.3256   0.3256   0.4727   0.4727   0.6324   0.6324

          k =-0.5000-0.4875-0.7221 ( 24112 PWs)   bands (ev):

   -23.7579 -23.7579  -9.4683  -9.4683  -9.1117  -9.1117  -9.0481  -9.0481
    -4.9004  -4.9004  -4.3953  -4.3953  -1.4824  -1.4824  -0.7922  -0.7922
     0.3021   0.3021   0.3493   0.3493   0.4954   0.4954   0.7356   0.7356

     highest occupied level (ev):     0.8885

!    total energy              =    -156.47485780 Ry
     estimated scf accuracy    <          3.8E-11 Ry

     The total energy is the sum of the following terms:
     one-electron contribution =     -21.46515391 Ry
     hartree contribution      =      25.27085618 Ry
     xc contribution           =     -49.14503030 Ry
     ewald contribution        =    -111.13552977 Ry

     convergence has been achieved in  11 iterations

     Forces acting on atoms (cartesian axes, Ry/au):

     atom    1 type  2   force =     0.00000000    0.00000000    0.00001331
     atom    2 type  2   force =     0.00000000    0.00000000   -0.00001331
     atom    3 type  1   force =    -0.00000077   -0.00000141   -0.00001256
     atom    4 type  1   force =     0.00000077    0.00000141   -0.00001256
     atom    5 type  1   force =    -0.00000077    0.00000141    0.00001256
     atom    6 type  1   force =     0.00000077   -0.00000141    0.00001256
     atom    7 type  3   force =    -0.00000385   -0.00000188   -0.00001646
     atom    8 type  3   force =     0.00000385    0.00000188   -0.00001646
     atom    9 type  3   force =    -0.00000385    0.00000188    0.00001646
     atom   10 type  3   force =     0.00000385   -0.00000188    0.00001646
     atom   11 type  3   force =    -0.00000212    0.00000466    0.00000562
     atom   12 type  3   force =     0.00000212   -0.00000466    0.00000562
     atom   13 type  3   force =    -0.00000212   -0.00000466   -0.00000562
     atom   14 type  3   force =     0.00000212    0.00000466   -0.00000562
     atom   15 type  3   force =     0.00002398   -0.00000873   -0.00000519
     atom   16 type  3   force =    -0.00002398    0.00000873   -0.00000519
     atom   17 type  3   force =     0.00002398    0.00000873    0.00000519
     atom   18 type  3   force =    -0.00002398   -0.00000873    0.00000519
     atom   19 type  3   force =     0.00002256   -0.00001080   -0.00000451
     atom   20 type  3   force =    -0.00002256    0.00001080   -0.00000451
     atom   21 type  3   force =     0.00002256    0.00001080    0.00000451
     atom   22 type  3   force =    -0.00002256   -0.00001080    0.00000451

     Total force =     0.000088     Total SCF correction =     0.000004


     Computing stress (Cartesian axis) and pressure

          total   stress  (Ry/bohr**3)                   (kbar)     P=        0.00
  -0.00000003   0.00000000   0.00000000           -0.00        0.00        0.00
   0.00000000  -0.00000005   0.00000000            0.00       -0.01        0.00
   0.00000000   0.00000000   0.00000010            0.00        0.00        0.01

     Volume is kept fixed: isostatic pressure set to zero

     BFGS Geometry Optimization
     Energy error            =      0.0E+00 Ry
     Gradient error          =      2.4E-05 Ry/Bohr
     Cell gradient error     =      1.3E-02 kbar

     number of scf cycles    =   1
     number of bfgs steps    =   0

     enthalpy           new  =    -156.4748577972 Ry

     new trust radius        =       0.0000260457 bohr
ibrav =      8
 celldm(1) =     12.61919384
 celldm(2) =      1.02557017
 celldm(3) =      0.69239626
Input lattice vectors:
     0.99999923     0.00000000     0.00000000
     0.00000000     1.02556939     0.00000000
     0.00000000     0.00000000     0.69239573
New lattice vectors in INITIAL alat:
     0.99999923     0.00000000     0.00000000
     0.00000000     1.02556939     0.00000000
     0.00000000     0.00000000     0.69239573
New lattice vectors in NEW alat (for information only):
     1.00000000     0.00000000     0.00000000
     0.00000000     1.02557017     0.00000000
     0.00000000     0.00000000     0.69239626
Discrepancy in bohr =     0.000000    0.000000    0.000000
     new conv_thr            =            1.0E-10 Ry

     new unit-cell volume =   1426.97029 a.u.^3 (   211.45518 Ang^3 )
     density =      2.62307 g/cm^3

CELL_PARAMETERS (alat= 12.61920353)
   0.999999231   0.000000000   0.000000000
   0.000000000   1.025569386   0.000000000
   0.000000000   0.000000000   0.692395729

ATOMIC_POSITIONS (crystal)
Ba               0.5000000000        0.5000000000        0.5001006885
Ba               0.0000000000        0.0000000000        0.9998993115
B                0.6102569548        0.2392022715        0.0000642192
B                0.3897430452        0.7607977285        0.0000642192
B                0.1102569548        0.2607977285        0.4999357808
B                0.8897430452        0.7392022715        0.4999357808
H                0.4340969469        0.2921555839        0.0002290498
H                0.5659030531        0.7078444161        0.0002290498
H                0.9340969469        0.2078444161        0.4997709502
H                0.0659030531        0.7921555839        0.4997709502
H                0.7220600998        0.3835553691       -0.0000077283
H                0.2779399002        0.6164446309       -0.0000077283
H                0.2220600998        0.1164446309        0.5000077283
H                0.7779399002        0.8835553691        0.5000077283
H                0.6392518250        0.1420937203        0.7804978194
H                0.3607481750        0.8579062797        0.7804978194
H                0.1392518250        0.3579062797        0.7195021806
H                0.8607481750        0.6420937203        0.7195021806
H                0.3605346186        0.8579550806        0.2195243323
H                0.6394653814        0.1420449194        0.2195243323
H                0.8605346186        0.6420449194        0.2804756677
H                0.1394653814        0.3579550806        0.2804756677



     Writing config-only to output data dir ./pwscf.save/ :
     XML data file
     NEW-OLD atomic charge density approx. for the potential

     total cpu time spent up to now is      104.2 secs

     Self-consistent Calculation

     iteration #  1     ecut=   100.00 Ry     beta= 0.70
     Davidson diagonalization with overlap
     ethr =  1.00E-06,  avg # of iterations =  1.0

     Threshold (ethr) on eigenvalues was too large:
     Diagonalizing with lowered threshold

     Davidson diagonalization with overlap
     ethr =  6.29E-13,  avg # of iterations =  4.0

     total cpu time spent up to now is      119.1 secs

     total energy              =    -156.47485781 Ry
     estimated scf accuracy    <          4.0E-10 Ry

     iteration #  2     ecut=   100.00 Ry     beta= 0.70
     Davidson diagonalization with overlap
     ethr =  8.43E-13,  avg # of iterations =  2.0

     total cpu time spent up to now is      125.7 secs

     End of self-consistent calculation

          k = 0.0000 0.0000 0.0000 ( 24047 PWs)   bands (ev):

   -23.7767 -23.7671  -9.3483  -9.2550  -9.0480  -9.0067  -8.9776  -8.9102
    -5.9844  -5.0149  -4.3024  -4.1561  -1.6836  -0.7612  -0.6814  -0.3364
     0.0501   0.0711   0.1215   0.2396   0.4081   0.8273   0.8424   0.8850

          k = 0.0000 0.0000 0.3611 ( 24116 PWs)   bands (ev):

   -23.7684 -23.7615  -9.2473  -9.2468  -9.2215  -9.1840  -9.0288  -9.0060
    -5.4614  -4.7403  -4.4860  -4.3945  -1.2902  -1.0303  -0.5733  -0.5204
    -0.3690  -0.2467   0.1278   0.4219   0.6171   0.6600   0.7387   0.8885

          k = 0.0000 0.0000-0.7221 ( 24112 PWs)   bands (ev):

   -23.7580 -23.7580  -9.4777  -9.4775  -9.0940  -9.0939  -9.0383  -9.0383
    -4.7274  -4.7269  -4.6550  -4.6544  -1.0521  -1.0516  -1.0395  -1.0379
     0.0358   0.0365   0.1225   0.1243   0.7048   0.7049   0.7186   0.7189

          k = 0.0000 0.2438 0.0000 ( 24101 PWs)   bands (ev):

   -23.7753 -23.7685  -9.3175  -9.2224  -9.1061  -9.0447  -8.9675  -8.9199
    -5.7762  -4.9198  -4.6017  -4.2923  -1.3089  -0.8714  -0.8377  -0.0486
    -0.0315  -0.0111   0.2877   0.4131   0.4933   0.5023   0.7372   0.8134

          k = 0.0000 0.2438 0.3611 ( 24096 PWs)   bands (ev):

   -23.7674 -23.7625  -9.2960  -9.2546  -9.1682  -9.1539  -9.0389  -9.0297
    -5.3532  -4.8182  -4.5285  -4.4349  -1.0966  -1.0552  -0.8605  -0.2762
    -0.2314  -0.0362  -0.0220   0.4757   0.5497   0.6012   0.7058   0.7639

          k = 0.0000 0.2438-0.7221 ( 24076 PWs)   bands (ev):

   -23.7580 -23.7580  -9.4921  -9.4920  -9.0740  -9.0739  -9.0374  -9.0374
    -5.0294  -5.0294  -4.3406  -4.3406  -1.1788  -1.1781  -0.8550  -0.8542
     0.1139   0.1141   0.1621   0.1637   0.5261   0.5261   0.7130   0.7133

          k = 0.0000-0.4875 0.0000 ( 24118 PWs)   bands (ev):

   -23.7718 -23.7718  -9.2298  -9.2298  -9.1314  -9.1314  -8.9435  -8.9435
    -5.2575  -5.2575  -4.5928  -4.5928  -0.9964  -0.9964  -0.3594  -0.3594
    -0.1150  -0.1150   0.4055   0.4055   0.5405   0.5405   0.6651   0.6651

          k = 0.0000-0.4875 0.3611 ( 24066 PWs)   bands (ev):

   -23.7649 -23.7649  -9.2954  -9.2954  -9.1072  -9.1072  -9.0714  -9.0714
    -5.0842  -5.0842  -4.5082  -4.5082  -1.0393  -1.0393  -0.6223  -0.6223
     0.0182   0.0182   0.3061   0.3061   0.4622   0.4622   0.6805   0.6805

          k = 0.0000-0.4875-0.7221 ( 24052 PWs)   bands (ev):

   -23.7580 -23.7580  -9.5053  -9.5053  -9.0571  -9.0571  -9.0344  -9.0344
    -5.1661  -5.1661  -4.1918  -4.1918  -1.2722  -1.2722  -0.5997  -0.5997
     0.0341   0.0341   0.2375   0.2375   0.3274   0.3274   0.7506   0.7506

          k = 0.2500 0.0000 0.0000 ( 24102 PWs)   bands (ev):

   -23.7752 -23.7684  -9.3070  -9.2354  -9.0947  -9.0633  -8.9675  -8.9199
    -5.7851  -5.0431  -4.3463  -4.3190  -1.4874  -0.6119  -0.5939  -0.4656
     0.0935   0.1320   0.1972   0.2643   0.3646   0.3912   0.7903   0.8278

          k = 0.2500 0.0000 0.3611 ( 24083 PWs)   bands (ev):

   -23.7673 -23.7625  -9.2865  -9.2672  -9.1988  -9.1283  -9.0562  -9.0168
    -5.3070  -4.7215  -4.5302  -4.5210  -1.2610  -1.0122  -0.8659  -0.3259
    -0.3127  -0.0296   0.2009   0.3390   0.4818   0.6126   0.8098   0.8386

          k = 0.2500 0.0000-0.7221 ( 24120 PWs)   bands (ev):

   -23.7580 -23.7580  -9.4972  -9.4971  -9.0791  -9.0791  -9.0347  -9.0347
    -4.8217  -4.8214  -4.5280  -4.5276  -1.5337  -1.5332  -0.5820  -0.5816
     0.0306   0.0311   0.3736   0.3750   0.5016   0.5016   0.7510   0.7514

          k = 0.2500 0.2438 0.0000 ( 24073 PWs)   bands (ev):

   -23.7742 -23.7694  -9.3370  -9.2096  -9.1512  -9.0138  -8.9603  -8.9265
    -5.6386  -4.9998  -4.6008  -4.3510  -1.1897  -0.8455  -0.6287  -0.1585
    -0.0874  -0.0373   0.2739   0.4229   0.4385   0.5209   0.5910   0.7425

          k = 0.2500 0.2438 0.3611 ( 24095 PWs)   bands (ev):

   -23.7666 -23.7632  -9.2892  -9.2465  -9.2392  -9.1067  -9.0682  -9.0094
    -5.2165  -4.7638  -4.6174  -4.5145  -1.2237  -0.9789  -0.8799  -0.3133
    -0.1522   0.0293   0.1334   0.3594   0.4598   0.5750   0.7293   0.8164

          k = 0.2500 0.2438-0.7221 ( 24132 PWs)   bands (ev):

   -23.7580 -23.7580  -9.5046  -9.4794  -9.1025  -9.0590  -9.0429  -9.0352
    -5.0414  -4.8490  -4.4921  -4.2941  -1.5096  -1.4248  -0.6553  -0.5414
    -0.0204  -0.0167   0.3426   0.4112   0.5136   0.5611   0.6979   0.7288

          k = 0.2500-0.4875 0.0000 ( 24070 PWs)   bands (ev):

   -23.7718 -23.7718  -9.3103  -9.3103  -9.0511  -9.0511  -8.9431  -8.9431
    -5.2642  -5.2642  -4.5744  -4.5744  -0.9009  -0.9009  -0.3694  -0.3694
    -0.1550  -0.1550   0.3342   0.3342   0.5804   0.5804   0.5991   0.5991

          k = 0.2500-0.4875 0.3611 ( 24110 PWs)   bands (ev):

   -23.7649 -23.7649  -9.2832  -9.2832  -9.1746  -9.1746  -9.0245  -9.0245
    -4.9914  -4.9914  -4.5803  -4.5803  -1.1316  -1.1316  -0.5431  -0.5431
    -0.0079  -0.0079   0.3248   0.3248   0.4731   0.4731   0.7008   0.7008

          k = 0.2500-0.4875-0.7221 ( 24084 PWs)   bands (ev):

   -23.7580 -23.7580  -9.4879  -9.4879  -9.0832  -9.0832  -9.0415  -9.0415
    -5.0510  -5.0510  -4.2760  -4.2760  -1.3936  -1.3936  -0.6618  -0.6618
     0.0985   0.0985   0.2284   0.2284   0.5553   0.5553   0.7164   0.7164

          k =-0.5000 0.0000 0.0000 ( 24112 PWs)   bands (ev):

   -23.7718 -23.7718  -9.2052  -9.2052  -9.1655  -9.1655  -8.9435  -8.9435
    -5.3398  -5.3398  -4.4206  -4.4206  -1.0540  -1.0540  -0.2405  -0.2405
     0.1341   0.1341   0.1503   0.1503   0.2437   0.2437   0.6751   0.6751

          k =-0.5000 0.0000 0.3611 ( 24132 PWs)   bands (ev):

   -23.7649 -23.7649  -9.2997  -9.2997  -9.1310  -9.1310  -9.0557  -9.0557
    -4.9453  -4.9453  -4.5937  -4.5937  -1.1852  -1.1852  -0.6060  -0.6060
    -0.0055  -0.0055   0.1904   0.1904   0.5755   0.5755   0.7965   0.7965

          k =-0.5000 0.0000-0.7221 ( 24120 PWs)   bands (ev):

   -23.7580 -23.7580  -9.5153  -9.5153  -9.0670  -9.0670  -9.0298  -9.0298
    -4.8691  -4.8691  -4.4449  -4.4449  -1.7512  -1.7512  -0.2748  -0.2748
     0.0270   0.0270   0.1976   0.1976   0.6944   0.6944   0.7070   0.7070

          k =-0.5000 0.2438 0.0000 ( 24064 PWs)   bands (ev):

   -23.7718 -23.7718  -9.3086  -9.3086  -9.0576  -9.0576  -8.9431  -8.9431
    -5.3085  -5.3085  -4.4853  -4.4853  -0.9435  -0.9435  -0.2469  -0.2469
    -0.0864  -0.0864   0.1091   0.1091   0.4878   0.4878   0.6545   0.6545

          k =-0.5000 0.2438 0.3611 ( 24106 PWs)   bands (ev):

   -23.7649 -23.7649  -9.2860  -9.2860  -9.1791  -9.1791  -9.0233  -9.0233
    -4.9016  -4.9016  -4.6431  -4.6431  -1.1906  -1.1906  -0.5762  -0.5762
     0.0292   0.0292   0.2377   0.2377   0.5681   0.5681   0.7259   0.7259

          k =-0.5000 0.2438-0.7221 ( 24144 PWs)   bands (ev):

   -23.7579 -23.7579  -9.4934  -9.4934  -9.0860  -9.0860  -9.0407  -9.0407
    -4.8851  -4.8851  -4.4198  -4.4198  -1.6450  -1.6450  -0.4911  -0.4911
     0.0718   0.0718   0.2732   0.2732   0.6273   0.6273   0.7706   0.7706

          k =-0.5000-0.4875 0.0000 ( 24076 PWs)   bands (ev):

   -23.7718 -23.7718  -9.3573  -9.3573  -9.0042  -9.0042  -8.9427  -8.9427
    -5.2727  -5.2727  -4.5533  -4.5533  -0.7858  -0.7858  -0.4013  -0.4013
    -0.1911  -0.1911   0.3006   0.3006   0.4960   0.4960   0.6163   0.6163

          k =-0.5000-0.4875 0.3611 ( 24128 PWs)   bands (ev):

   -23.7649 -23.7649  -9.2590  -9.2590  -9.2272  -9.2272  -9.0043  -9.0043
    -4.8298  -4.8298  -4.7203  -4.7203  -1.1787  -1.1787  -0.6154  -0.6154
     0.1846   0.1846   0.3256   0.3256   0.4727   0.4727   0.6324   0.6324

          k =-0.5000-0.4875-0.7221 ( 24112 PWs)   bands (ev):

   -23.7579 -23.7579  -9.4683  -9.4683  -9.1117  -9.1117  -9.0481  -9.0481
    -4.9004  -4.9004  -4.3953  -4.3953  -1.4824  -1.4824  -0.7922  -0.7922
     0.3021   0.3021   0.3493   0.3493   0.4954   0.4954   0.7356   0.7356

     highest occupied level (ev):     0.8885

!    total energy              =    -156.47485781 Ry
     estimated scf accuracy    <          4.5E-11 Ry

     The total energy is the sum of the following terms:
     one-electron contribution =     -21.46506086 Ry
     hartree contribution      =      25.27080902 Ry
     xc contribution           =     -49.14502402 Ry
     ewald contribution        =    -111.13558195 Ry

     convergence has been achieved in   2 iterations

     Forces acting on atoms (cartesian axes, Ry/au):

     atom    1 type  2   force =     0.00000000    0.00000000    0.00001129
     atom    2 type  2   force =     0.00000000    0.00000000   -0.00001129
     atom    3 type  1   force =    -0.00000099   -0.00000088   -0.00001112
     atom    4 type  1   force =     0.00000099    0.00000088   -0.00001112
     atom    5 type  1   force =    -0.00000099    0.00000088    0.00001112
     atom    6 type  1   force =     0.00000099   -0.00000088    0.00001112
     atom    7 type  3   force =    -0.00000381   -0.00000180   -0.00001738
     atom    8 type  3   force =     0.00000381    0.00000180   -0.00001738
     atom    9 type  3   force =    -0.00000381    0.00000180    0.00001738
     atom   10 type  3   force =     0.00000381   -0.00000180    0.00001738
     atom   11 type  3   force =    -0.00000219    0.00000457    0.00000502
     atom   12 type  3   force =     0.00000219   -0.00000457    0.00000502
     atom   13 type  3   force =    -0.00000219   -0.00000457   -0.00000502
     atom   14 type  3   force =     0.00000219    0.00000457   -0.00000502
     atom   15 type  3   force =     0.00002302   -0.00000782   -0.00000390
     atom   16 type  3   force =    -0.00002302    0.00000782   -0.00000390
     atom   17 type  3   force =     0.00002302    0.00000782    0.00000390
     atom   18 type  3   force =    -0.00002302   -0.00000782    0.00000390
     atom   19 type  3   force =     0.00002151   -0.00000950   -0.00000451
     atom   20 type  3   force =    -0.00002151    0.00000950   -0.00000451
     atom   21 type  3   force =     0.00002151    0.00000950    0.00000451
     atom   22 type  3   force =    -0.00002151   -0.00000950    0.00000451

     Total force =     0.000083     Total SCF correction =     0.000006


     Computing stress (Cartesian axis) and pressure

          total   stress  (Ry/bohr**3)                   (kbar)     P=       -0.00
  -0.00000003   0.00000000   0.00000000           -0.00        0.00        0.00
   0.00000000  -0.00000005   0.00000000            0.00       -0.01        0.00
   0.00000000   0.00000000   0.00000008            0.00        0.00        0.01

     Volume is kept fixed: isostatic pressure set to zero
     Energy error            =      7.9E-09 Ry
     Gradient error          =      2.3E-05 Ry/Bohr
     Cell gradient error     =      1.2E-02 kbar

     number of scf cycles    =   2
     number of bfgs steps    =   1

     enthalpy           old  =    -156.4748577972 Ry
     enthalpy           new  =    -156.4748578052 Ry

     CASE: enthalpy          _new < enthalpy          _old


     WARNING: bfgs curvature condition failed, Theta= 0.846
     small trust_radius: resetting bfgs history

     new trust radius        =       0.0000246224 bohr
ibrav =      8
 celldm(1) =     12.61918556
 celldm(2) =      1.02556948
 celldm(3) =      0.69239809
Input lattice vectors:
     0.99999858     0.00000000     0.00000000
     0.00000000     1.02556802     0.00000000
     0.00000000     0.00000000     0.69239710
New lattice vectors in INITIAL alat:
     0.99999858     0.00000000     0.00000000
     0.00000000     1.02556802     0.00000000
     0.00000000     0.00000000     0.69239710
New lattice vectors in NEW alat (for information only):
     1.00000000     0.00000000     0.00000000
     0.00000000     1.02556948     0.00000000
     0.00000000     0.00000000     0.69239809
Discrepancy in bohr =     0.000000    0.000000    0.000000
     new conv_thr            =            1.0E-12 Ry

     new unit-cell volume =   1426.97029 a.u.^3 (   211.45518 Ang^3 )
     density =      2.62307 g/cm^3

CELL_PARAMETERS (alat= 12.61920353)
   0.999998576   0.000000000   0.000000000
   0.000000000   1.025568022   0.000000000
   0.000000000   0.000000000   0.692397105

ATOMIC_POSITIONS (crystal)
Ba               0.5000000000        0.5000000000        0.5001019806
Ba               0.0000000000        0.0000000000        0.9998980194
B                0.6102568764        0.2392022036        0.0000629464
B                0.3897431236        0.7607977964        0.0000629464
B                0.1102568764        0.2607977964        0.4999370536
B                0.8897431236        0.7392022036        0.4999370536
H                0.4340966448        0.2921554449        0.0002270604
H                0.5659033552        0.7078445551        0.0002270604
H                0.9340966448        0.2078445551        0.4997729396
H                0.0659033552        0.7921554449        0.4997729396
H                0.7220599260        0.3835557225       -0.0000071538
H                0.2779400740        0.6164442775       -0.0000071538
H                0.2220599260        0.1164442775        0.5000071538
H                0.7779400740        0.8835557225        0.5000071538
H                0.6392536493        0.1420931163        0.7804973734
H                0.3607463507        0.8579068837        0.7804973734
H                0.1392536493        0.3579068837        0.7195026266
H                0.8607463507        0.6420931163        0.7195026266
H                0.3605363228        0.8579543468        0.2195238162
H                0.6394636772        0.1420456532        0.2195238162
H                0.8605363228        0.6420456532        0.2804761838
H                0.1394636772        0.3579543468        0.2804761838



     Writing config-only to output data dir ./pwscf.save/ :
     XML data file
     NEW-OLD atomic charge density approx. for the potential

     total cpu time spent up to now is      134.0 secs

     Self-consistent Calculation

     iteration #  1     ecut=   100.00 Ry     beta= 0.70
     Davidson diagonalization with overlap
     ethr =  1.00E-06,  avg # of iterations =  1.0

     Threshold (ethr) on eigenvalues was too large:
     Diagonalizing with lowered threshold

     Davidson diagonalization with overlap
     ethr =  4.49E-13,  avg # of iterations =  4.0

     total cpu time spent up to now is      149.0 secs

     total energy              =    -156.47485781 Ry
     estimated scf accuracy    <          3.4E-10 Ry

     iteration #  2     ecut=   100.00 Ry     beta= 0.70
     Davidson diagonalization with overlap
     ethr =  7.03E-13,  avg # of iterations =  2.0

     total cpu time spent up to now is      155.6 secs

     total energy              =    -156.47485781 Ry
     estimated scf accuracy    <          3.3E-11 Ry

     iteration #  3     ecut=   100.00 Ry     beta= 0.70
     Davidson diagonalization with overlap
     ethr =  1.00E-13,  avg # of iterations =  2.0

     total cpu time spent up to now is      162.2 secs

     total energy              =    -156.47485781 Ry
     estimated scf accuracy    <          1.5E-12 Ry

     iteration #  4     ecut=   100.00 Ry     beta= 0.70
     Davidson diagonalization with overlap
     ethr =  1.00E-13,  avg # of iterations =  1.0

     total cpu time spent up to now is      167.2 secs

     End of self-consistent calculation

          k = 0.0000 0.0000 0.0000 ( 24047 PWs)   bands (ev):

   -23.7767 -23.7671  -9.3483  -9.2550  -9.0480  -9.0067  -8.9776  -8.9102
    -5.9844  -5.0149  -4.3024  -4.1560  -1.6836  -0.7611  -0.6814  -0.3364
     0.0501   0.0711   0.1215   0.2396   0.4081   0.8273   0.8424   0.8850

          k = 0.0000 0.0000 0.3611 ( 24116 PWs)   bands (ev):

   -23.7684 -23.7616  -9.2473  -9.2468  -9.2215  -9.1840  -9.0288  -9.0060
    -5.4614  -4.7403  -4.4860  -4.3945  -1.2902  -1.0303  -0.5733  -0.5204
    -0.3690  -0.2467   0.1278   0.4219   0.6171   0.6601   0.7387   0.8886

          k = 0.0000 0.0000-0.7221 ( 24112 PWs)   bands (ev):

   -23.7580 -23.7580  -9.4777  -9.4775  -9.0940  -9.0939  -9.0383  -9.0383
    -4.7274  -4.7269  -4.6549  -4.6544  -1.0521  -1.0516  -1.0395  -1.0379
     0.0358   0.0365   0.1225   0.1243   0.7048   0.7049   0.7186   0.7189

          k = 0.0000 0.2438 0.0000 ( 24101 PWs)   bands (ev):

   -23.7753 -23.7685  -9.3175  -9.2224  -9.1061  -9.0447  -8.9675  -8.9199
    -5.7762  -4.9198  -4.6017  -4.2923  -1.3089  -0.8713  -0.8377  -0.0487
    -0.0315  -0.0111   0.2877   0.4131   0.4933   0.5023   0.7372   0.8134

          k = 0.0000 0.2438 0.3611 ( 24096 PWs)   bands (ev):

   -23.7674 -23.7625  -9.2960  -9.2546  -9.1682  -9.1539  -9.0389  -9.0297
    -5.3532  -4.8182  -4.5284  -4.4349  -1.0966  -1.0551  -0.8605  -0.2762
    -0.2314  -0.0362  -0.0220   0.4757   0.5497   0.6012   0.7058   0.7639

          k = 0.0000 0.2438-0.7221 ( 24076 PWs)   bands (ev):

   -23.7580 -23.7580  -9.4921  -9.4920  -9.0740  -9.0739  -9.0374  -9.0374
    -5.0294  -5.0294  -4.3406  -4.3406  -1.1788  -1.1781  -0.8550  -0.8542
     0.1139   0.1141   0.1621   0.1637   0.5261   0.5261   0.7130   0.7133

          k = 0.0000-0.4875 0.0000 ( 24118 PWs)   bands (ev):

   -23.7718 -23.7718  -9.2298  -9.2298  -9.1314  -9.1314  -8.9435  -8.9435
    -5.2575  -5.2575  -4.5927  -4.5927  -0.9964  -0.9964  -0.3594  -0.3594
    -0.1150  -0.1150   0.4056   0.4056   0.5405   0.5405   0.6651   0.6651

          k = 0.0000-0.4875 0.3611 ( 24066 PWs)   bands (ev):

   -23.7649 -23.7649  -9.2954  -9.2954  -9.1072  -9.1072  -9.0714  -9.0714
    -5.0842  -5.0842  -4.5082  -4.5082  -1.0393  -1.0393  -0.6223  -0.6223
     0.0182   0.0182   0.3061   0.3061   0.4622   0.4622   0.6805   0.6805

          k = 0.0000-0.4875-0.7221 ( 24052 PWs)   bands (ev):

   -23.7580 -23.7580  -9.5053  -9.5053  -9.0571  -9.0571  -9.0344  -9.0344
    -5.1661  -5.1661  -4.1918  -4.1918  -1.2722  -1.2722  -0.5997  -0.5997
     0.0342   0.0342   0.2375   0.2375   0.3274   0.3274   0.7506   0.7506

          k = 0.2500 0.0000 0.0000 ( 24102 PWs)   bands (ev):

   -23.7752 -23.7684  -9.3070  -9.2355  -9.0947  -9.0633  -8.9676  -8.9199
    -5.7850  -5.0431  -4.3463  -4.3190  -1.4874  -0.6118  -0.5939  -0.4656
     0.0935   0.1320   0.1972   0.2643   0.3646   0.3912   0.7903   0.8278

          k = 0.2500 0.0000 0.3611 ( 24083 PWs)   bands (ev):

   -23.7673 -23.7625  -9.2865  -9.2672  -9.1988  -9.1283  -9.0562  -9.0168
    -5.3070  -4.7215  -4.5302  -4.5210  -1.2610  -1.0122  -0.8659  -0.3259
    -0.3127  -0.0296   0.2009   0.3390   0.4818   0.6126   0.8098   0.8387

          k = 0.2500 0.0000-0.7221 ( 24120 PWs)   bands (ev):

   -23.7580 -23.7580  -9.4972  -9.4971  -9.0791  -9.0791  -9.0347  -9.0347
    -4.8217  -4.8213  -4.5279  -4.5276  -1.5337  -1.5332  -0.5820  -0.5816
     0.0307   0.0311   0.3736   0.3750   0.5016   0.5016   0.7510   0.7514

          k = 0.2500 0.2438 0.0000 ( 24073 PWs)   bands (ev):

   -23.7742 -23.7694  -9.3370  -9.2096  -9.1512  -9.0138  -8.9603  -8.9265
    -5.6386  -4.9998  -4.6008  -4.3510  -1.1897  -0.8455  -0.6287  -0.1585
    -0.0874  -0.0373   0.2740   0.4228   0.4385   0.5209   0.5911   0.7425

          k = 0.2500 0.2438 0.3611 ( 24095 PWs)   bands (ev):

   -23.7666 -23.7632  -9.2892  -9.2465  -9.2392  -9.1067  -9.0682  -9.0094
    -5.2165  -4.7638  -4.6174  -4.5145  -1.2237  -0.9789  -0.8799  -0.3132
    -0.1522   0.0293   0.1334   0.3594   0.4598   0.5750   0.7293   0.8164

          k = 0.2500 0.2438-0.7221 ( 24132 PWs)   bands (ev):

   -23.7580 -23.7580  -9.5046  -9.4794  -9.1025  -9.0590  -9.0429  -9.0352
    -5.0414  -4.8490  -4.4921  -4.2941  -1.5096  -1.4248  -0.6553  -0.5414
    -0.0204  -0.0167   0.3426   0.4112   0.5136   0.5611   0.6979   0.7288

          k = 0.2500-0.4875 0.0000 ( 24070 PWs)   bands (ev):

   -23.7718 -23.7718  -9.3103  -9.3103  -9.0511  -9.0511  -8.9431  -8.9431
    -5.2642  -5.2642  -4.5744  -4.5744  -0.9009  -0.9009  -0.3694  -0.3694
    -0.1550  -0.1550   0.3343   0.3343   0.5804   0.5804   0.5991   0.5991

          k = 0.2500-0.4875 0.3611 ( 24110 PWs)   bands (ev):

   -23.7649 -23.7649  -9.2832  -9.2832  -9.1746  -9.1746  -9.0245  -9.0245
    -4.9914  -4.9914  -4.5803  -4.5803  -1.1316  -1.1316  -0.5431  -0.5431
    -0.0079  -0.0079   0.3248   0.3248   0.4731   0.4731   0.7008   0.7008

          k = 0.2500-0.4875-0.7221 ( 24084 PWs)   bands (ev):

   -23.7580 -23.7580  -9.4879  -9.4879  -9.0832  -9.0832  -9.0415  -9.0415
    -5.0510  -5.0510  -4.2760  -4.2760  -1.3936  -1.3936  -0.6618  -0.6618
     0.0985   0.0985   0.2284   0.2284   0.5553   0.5553   0.7164   0.7164

          k =-0.5000 0.0000 0.0000 ( 24112 PWs)   bands (ev):

   -23.7718 -23.7718  -9.2052  -9.2052  -9.1655  -9.1655  -8.9435  -8.9435
    -5.3398  -5.3398  -4.4206  -4.4206  -1.0539  -1.0539  -0.2405  -0.2405
     0.1341   0.1341   0.1503   0.1503   0.2437   0.2437   0.6752   0.6752

          k =-0.5000 0.0000 0.3611 ( 24132 PWs)   bands (ev):

   -23.7649 -23.7649  -9.2997  -9.2997  -9.1310  -9.1310  -9.0557  -9.0557
    -4.9452  -4.9452  -4.5937  -4.5937  -1.1852  -1.1852  -0.6059  -0.6059
    -0.0055  -0.0055   0.1904   0.1904   0.5755   0.5755   0.7965   0.7965

          k =-0.5000 0.0000-0.7221 ( 24120 PWs)   bands (ev):

   -23.7580 -23.7580  -9.5153  -9.5153  -9.0670  -9.0670  -9.0298  -9.0298
    -4.8691  -4.8691  -4.4449  -4.4449  -1.7512  -1.7512  -0.2748  -0.2748
     0.0270   0.0270   0.1976   0.1976   0.6944   0.6944   0.7070   0.7070

          k =-0.5000 0.2438 0.0000 ( 24064 PWs)   bands (ev):

   -23.7718 -23.7718  -9.3086  -9.3086  -9.0576  -9.0576  -8.9431  -8.9431
    -5.3085  -5.3085  -4.4853  -4.4853  -0.9435  -0.9435  -0.2469  -0.2469
    -0.0864  -0.0864   0.1091   0.1091   0.4878   0.4878   0.6545   0.6545

          k =-0.5000 0.2438 0.3611 ( 24106 PWs)   bands (ev):

   -23.7649 -23.7649  -9.2860  -9.2860  -9.1791  -9.1791  -9.0233  -9.0233
    -4.9016  -4.9016  -4.6431  -4.6431  -1.1906  -1.1906  -0.5762  -0.5762
     0.0293   0.0293   0.2377   0.2377   0.5681   0.5681   0.7259   0.7259

          k =-0.5000 0.2438-0.7221 ( 24144 PWs)   bands (ev):

   -23.7579 -23.7579  -9.4934  -9.4934  -9.0860  -9.0860  -9.0407  -9.0407
    -4.8851  -4.8851  -4.4198  -4.4198  -1.6450  -1.6450  -0.4911  -0.4911
     0.0719   0.0719   0.2732   0.2732   0.6273   0.6273   0.7707   0.7707

          k =-0.5000-0.4875 0.0000 ( 24076 PWs)   bands (ev):

   -23.7718 -23.7718  -9.3573  -9.3573  -9.0042  -9.0042  -8.9427  -8.9427
    -5.2727  -5.2727  -4.5533  -4.5533  -0.7858  -0.7858  -0.4013  -0.4013
    -0.1911  -0.1911   0.3007   0.3007   0.4961   0.4961   0.6163   0.6163

          k =-0.5000-0.4875 0.3611 ( 24128 PWs)   bands (ev):

   -23.7649 -23.7649  -9.2590  -9.2590  -9.2272  -9.2272  -9.0043  -9.0043
    -4.8298  -4.8298  -4.7203  -4.7203  -1.1787  -1.1787  -0.6154  -0.6154
     0.1846   0.1846   0.3256   0.3256   0.4727   0.4727   0.6324   0.6324

          k =-0.5000-0.4875-0.7221 ( 24112 PWs)   bands (ev):

   -23.7579 -23.7579  -9.4683  -9.4683  -9.1117  -9.1117  -9.0481  -9.0481
    -4.9004  -4.9004  -4.3953  -4.3953  -1.4824  -1.4824  -0.7922  -0.7922
     0.3021   0.3021   0.3494   0.3494   0.4954   0.4954   0.7356   0.7356

     highest occupied level (ev):     0.8886

!    total energy              =    -156.47485781 Ry
     estimated scf accuracy    <          1.2E-13 Ry

     The total energy is the sum of the following terms:
     one-electron contribution =     -21.46497798 Ry
     hartree contribution      =      25.27076067 Ry
     xc contribution           =     -49.14501553 Ry
     ewald contribution        =    -111.13562497 Ry

     convergence has been achieved in   4 iterations

     Forces acting on atoms (cartesian axes, Ry/au):

     atom    1 type  2   force =     0.00000000    0.00000000    0.00000876
     atom    2 type  2   force =     0.00000000    0.00000000   -0.00000876
     atom    3 type  1   force =    -0.00000111   -0.00000041   -0.00001050
     atom    4 type  1   force =     0.00000111    0.00000041   -0.00001050
     atom    5 type  1   force =    -0.00000111    0.00000041    0.00001050
     atom    6 type  1   force =     0.00000111   -0.00000041    0.00001050
     atom    7 type  3   force =    -0.00000383   -0.00000169   -0.00001806
     atom    8 type  3   force =     0.00000383    0.00000169   -0.00001806
     atom    9 type  3   force =    -0.00000383    0.00000169    0.00001806
     atom   10 type  3   force =     0.00000383   -0.00000169    0.00001806
     atom   11 type  3   force =    -0.00000219    0.00000456    0.00000437
     atom   12 type  3   force =     0.00000219   -0.00000456    0.00000437
     atom   13 type  3   force =    -0.00000219   -0.00000456   -0.00000437
     atom   14 type  3   force =     0.00000219    0.00000456   -0.00000437
     atom   15 type  3   force =     0.00002202   -0.00000688   -0.00000278
     atom   16 type  3   force =    -0.00002202    0.00000688   -0.00000278
     atom   17 type  3   force =     0.00002202    0.00000688    0.00000278
     atom   18 type  3   force =    -0.00002202   -0.00000688    0.00000278
     atom   19 type  3   force =     0.00002039   -0.00000808   -0.00000409
     atom   20 type  3   force =    -0.00002039    0.00000808   -0.00000409
     atom   21 type  3   force =     0.00002039    0.00000808    0.00000409
     atom   22 type  3   force =    -0.00002039   -0.00000808    0.00000409

     Total force =     0.000079     Total SCF correction =     0.000001


     Computing stress (Cartesian axis) and pressure

          total   stress  (Ry/bohr**3)                   (kbar)     P=       -0.00
  -0.00000003   0.00000000   0.00000000           -0.00        0.00        0.00
   0.00000000  -0.00000006   0.00000000            0.00       -0.01        0.00
   0.00000000   0.00000000   0.00000006            0.00        0.00        0.01

     Volume is kept fixed: isostatic pressure set to zero
     Energy error            =      7.1E-09 Ry
     Gradient error          =      2.2E-05 Ry/Bohr
     Cell gradient error     =      1.0E-02 kbar

     number of scf cycles    =   3
     number of bfgs steps    =   2

     enthalpy           old  =    -156.4748578052 Ry
     enthalpy           new  =    -156.4748578123 Ry

     CASE: enthalpy          _new < enthalpy          _old


     WARNING: bfgs curvature condition failed, Theta= 0.845
     Message from routine bfgs :: compute_trust_radius:
     history already reset at previous step: stopping
     small trust_radius: resetting bfgs history

     new trust radius        =       0.0000232335 bohr
ibrav =      8
 celldm(1) =     12.61917836
 celldm(2) =      1.02556884
 celldm(3) =      0.69239971
Input lattice vectors:
     0.99999801     0.00000000     0.00000000
     0.00000000     1.02556680     0.00000000
     0.00000000     0.00000000     0.69239833
New lattice vectors in INITIAL alat:
     0.99999801     0.00000000     0.00000000
     0.00000000     1.02556680     0.00000000
     0.00000000     0.00000000     0.69239833
New lattice vectors in NEW alat (for information only):
     1.00000000     0.00000000     0.00000000
     0.00000000     1.02556884     0.00000000
     0.00000000     0.00000000     0.69239971
Discrepancy in bohr =     0.000000    0.000000    0.000000
     new conv_thr            =            1.0E-12 Ry

     new unit-cell volume =   1426.97029 a.u.^3 (   211.45518 Ang^3 )
     density =      2.62307 g/cm^3

CELL_PARAMETERS (alat= 12.61920353)
   0.999998005   0.000000000   0.000000000
   0.000000000   1.025566798   0.000000000
   0.000000000   0.000000000   0.692398326

ATOMIC_POSITIONS (crystal)
Ba               0.5000000000        0.5000000000        0.5001029829
Ba               0.0000000000        0.0000000000        0.9998970171
B                0.6102567886        0.2392021717        0.0000617443
B                0.3897432114        0.7607978283        0.0000617443
B                0.1102567886        0.2607978283        0.4999382557
B                0.8897432114        0.7392021717        0.4999382557
H                0.4340963416        0.2921553140        0.0002249934
H                0.5659036584        0.7078446860        0.0002249934
H                0.9340963416        0.2078446860        0.4997750066
H                0.0659036584        0.7921553140        0.4997750066
H                0.7220597526        0.3835560752       -0.0000066534
H                0.2779402474        0.6164439248       -0.0000066534
H                0.2220597526        0.1164439248        0.5000066534
H                0.7779402474        0.8835560752        0.5000066534
H                0.6392553939        0.1420925845        0.7804970555
H                0.3607446061        0.8579074155        0.7804970555
H                0.1392553939        0.3579074155        0.7195029445
H                0.8607446061        0.6420925845        0.7195029445
H                0.3605379386        0.8579537222        0.2195233478
H                0.6394620614        0.1420462778        0.2195233478
H                0.8605379386        0.6420462778        0.2804766522
H                0.1394620614        0.3579537222        0.2804766522



     Writing config-only to output data dir ./pwscf.save/ :
     XML data file
     NEW-OLD atomic charge density approx. for the potential

     total cpu time spent up to now is      175.5 secs

     Self-consistent Calculation

     iteration #  1     ecut=   100.00 Ry     beta= 0.70
     Davidson diagonalization with overlap
     ethr =  1.00E-06,  avg # of iterations =  1.0

     Threshold (ethr) on eigenvalues was too large:
     Diagonalizing with lowered threshold

     Davidson diagonalization with overlap
     ethr =  3.45E-13,  avg # of iterations =  4.1

     total cpu time spent up to now is      190.5 secs

     total energy              =    -156.47485782 Ry
     estimated scf accuracy    <          2.3E-10 Ry

     iteration #  2     ecut=   100.00 Ry     beta= 0.70
     Davidson diagonalization with overlap
     ethr =  4.84E-13,  avg # of iterations =  2.0

     total cpu time spent up to now is      196.7 secs

     total energy              =    -156.47485782 Ry
     estimated scf accuracy    <          1.3E-11 Ry

     iteration #  3     ecut=   100.00 Ry     beta= 0.70
     Davidson diagonalization with overlap
     ethr =  1.00E-13,  avg # of iterations =  1.0

     total cpu time spent up to now is      201.7 secs

     End of self-consistent calculation

          k = 0.0000 0.0000 0.0000 ( 24047 PWs)   bands (ev):

   -23.7767 -23.7671  -9.3483  -9.2550  -9.0480  -9.0067  -8.9776  -8.9102
    -5.9844  -5.0149  -4.3024  -4.1560  -1.6836  -0.7611  -0.6814  -0.3364
     0.0500   0.0711   0.1215   0.2395   0.4081   0.8273   0.8424   0.8851

          k = 0.0000 0.0000 0.3611 ( 24116 PWs)   bands (ev):

   -23.7684 -23.7616  -9.2473  -9.2468  -9.2215  -9.1840  -9.0288  -9.0060
    -5.4614  -4.7403  -4.4860  -4.3945  -1.2902  -1.0303  -0.5733  -0.5204
    -0.3690  -0.2467   0.1279   0.4219   0.6171   0.6601   0.7387   0.8886

          k = 0.0000 0.0000-0.7221 ( 24112 PWs)   bands (ev):

   -23.7580 -23.7580  -9.4777  -9.4775  -9.0940  -9.0939  -9.0383  -9.0383
    -4.7274  -4.7270  -4.6549  -4.6544  -1.0522  -1.0516  -1.0395  -1.0379
     0.0358   0.0365   0.1225   0.1243   0.7048   0.7049   0.7186   0.7189

          k = 0.0000 0.2438 0.0000 ( 24101 PWs)   bands (ev):

   -23.7753 -23.7685  -9.3175  -9.2224  -9.1061  -9.0447  -8.9675  -8.9199
    -5.7762  -4.9198  -4.6017  -4.2923  -1.3089  -0.8713  -0.8377  -0.0487
    -0.0315  -0.0111   0.2877   0.4131   0.4933   0.5023   0.7373   0.8134

          k = 0.0000 0.2438 0.3611 ( 24096 PWs)   bands (ev):

   -23.7674 -23.7625  -9.2960  -9.2546  -9.1682  -9.1539  -9.0389  -9.0297
    -5.3532  -4.8182  -4.5284  -4.4349  -1.0965  -1.0551  -0.8605  -0.2762
    -0.2314  -0.0362  -0.0220   0.4757   0.5497   0.6012   0.7058   0.7639

          k = 0.0000 0.2438-0.7221 ( 24076 PWs)   bands (ev):

   -23.7580 -23.7580  -9.4921  -9.4920  -9.0740  -9.0739  -9.0374  -9.0374
    -5.0294  -5.0294  -4.3406  -4.3406  -1.1788  -1.1781  -0.8550  -0.8542
     0.1139   0.1141   0.1621   0.1637   0.5261   0.5261   0.7131   0.7133

          k = 0.0000-0.4875 0.0000 ( 24118 PWs)   bands (ev):

   -23.7718 -23.7718  -9.2298  -9.2298  -9.1314  -9.1314  -8.9435  -8.9435
    -5.2575  -5.2575  -4.5927  -4.5927  -0.9964  -0.9964  -0.3594  -0.3594
    -0.1150  -0.1150   0.4056   0.4056   0.5405   0.5405   0.6651   0.6651

          k = 0.0000-0.4875 0.3611 ( 24066 PWs)   bands (ev):

   -23.7649 -23.7649  -9.2954  -9.2954  -9.1072  -9.1072  -9.0714  -9.0714
    -5.0842  -5.0842  -4.5082  -4.5082  -1.0393  -1.0393  -0.6223  -0.6223
     0.0182   0.0182   0.3061   0.3061   0.4622   0.4622   0.6805   0.6805

          k = 0.0000-0.4875-0.7221 ( 24052 PWs)   bands (ev):

   -23.7580 -23.7580  -9.5053  -9.5053  -9.0571  -9.0571  -9.0344  -9.0344
    -5.1661  -5.1661  -4.1918  -4.1918  -1.2722  -1.2722  -0.5997  -0.5997
     0.0342   0.0342   0.2375   0.2375   0.3274   0.3274   0.7507   0.7507

          k = 0.2500 0.0000 0.0000 ( 24102 PWs)   bands (ev):

   -23.7752 -23.7684  -9.3070  -9.2355  -9.0947  -9.0633  -8.9676  -8.9199
    -5.7850  -5.0431  -4.3463  -4.3190  -1.4873  -0.6118  -0.5939  -0.4656
     0.0935   0.1320   0.1972   0.2643   0.3646   0.3912   0.7904   0.8278

          k = 0.2500 0.0000 0.3611 ( 24083 PWs)   bands (ev):

   -23.7673 -23.7625  -9.2865  -9.2672  -9.1988  -9.1283  -9.0562  -9.0168
    -5.3070  -4.7215  -4.5302  -4.5210  -1.2610  -1.0122  -0.8659  -0.3259
    -0.3127  -0.0296   0.2009   0.3390   0.4818   0.6126   0.8098   0.8387

          k = 0.2500 0.0000-0.7221 ( 24120 PWs)   bands (ev):

   -23.7580 -23.7580  -9.4972  -9.4971  -9.0791  -9.0791  -9.0347  -9.0347
    -4.8217  -4.8213  -4.5279  -4.5276  -1.5337  -1.5332  -0.5820  -0.5816
     0.0307   0.0311   0.3736   0.3750   0.5016   0.5016   0.7510   0.7514

          k = 0.2500 0.2438 0.0000 ( 24073 PWs)   bands (ev):

   -23.7742 -23.7694  -9.3370  -9.2096  -9.1512  -9.0138  -8.9603  -8.9265
    -5.6386  -4.9998  -4.6008  -4.3510  -1.1897  -0.8455  -0.6286  -0.1585
    -0.0874  -0.0373   0.2740   0.4228   0.4385   0.5209   0.5911   0.7425

          k = 0.2500 0.2438 0.3611 ( 24095 PWs)   bands (ev):

   -23.7666 -23.7632  -9.2892  -9.2465  -9.2392  -9.1067  -9.0682  -9.0094
    -5.2165  -4.7638  -4.6174  -4.5145  -1.2237  -0.9789  -0.8799  -0.3132
    -0.1521   0.0293   0.1334   0.3594   0.4598   0.5750   0.7293   0.8164

          k = 0.2500 0.2438-0.7221 ( 24132 PWs)   bands (ev):

   -23.7580 -23.7580  -9.5046  -9.4794  -9.1025  -9.0590  -9.0429  -9.0352
    -5.0414  -4.8490  -4.4921  -4.2941  -1.5096  -1.4248  -0.6553  -0.5414
    -0.0203  -0.0167   0.3426   0.4112   0.5136   0.5611   0.6979   0.7288

          k = 0.2500-0.4875 0.0000 ( 24070 PWs)   bands (ev):

   -23.7718 -23.7718  -9.3103  -9.3103  -9.0511  -9.0511  -8.9431  -8.9431
    -5.2642  -5.2642  -4.5744  -4.5744  -0.9009  -0.9009  -0.3694  -0.3694
    -0.1550  -0.1550   0.3343   0.3343   0.5804   0.5804   0.5991   0.5991

          k = 0.2500-0.4875 0.3611 ( 24110 PWs)   bands (ev):

   -23.7649 -23.7649  -9.2832  -9.2832  -9.1746  -9.1746  -9.0245  -9.0245
    -4.9914  -4.9914  -4.5803  -4.5803  -1.1316  -1.1316  -0.5431  -0.5431
    -0.0079  -0.0079   0.3248   0.3248   0.4731   0.4731   0.7008   0.7008

          k = 0.2500-0.4875-0.7221 ( 24084 PWs)   bands (ev):

   -23.7580 -23.7580  -9.4879  -9.4879  -9.0832  -9.0832  -9.0415  -9.0415
    -5.0510  -5.0510  -4.2760  -4.2760  -1.3936  -1.3936  -0.6618  -0.6618
     0.0985   0.0985   0.2284   0.2284   0.5553   0.5553   0.7164   0.7164

          k =-0.5000 0.0000 0.0000 ( 24112 PWs)   bands (ev):

   -23.7718 -23.7718  -9.2052  -9.2052  -9.1655  -9.1655  -8.9435  -8.9435
    -5.3398  -5.3398  -4.4206  -4.4206  -1.0539  -1.0539  -0.2405  -0.2405
     0.1341   0.1341   0.1504   0.1504   0.2437   0.2437   0.6752   0.6752

          k =-0.5000 0.0000 0.3611 ( 24132 PWs)   bands (ev):

   -23.7649 -23.7649  -9.2997  -9.2997  -9.1310  -9.1310  -9.0557  -9.0557
    -4.9452  -4.9452  -4.5937  -4.5937  -1.1852  -1.1852  -0.6059  -0.6059
    -0.0055  -0.0055   0.1904   0.1904   0.5755   0.5755   0.7965   0.7965

          k =-0.5000 0.0000-0.7221 ( 24120 PWs)   bands (ev):

   -23.7580 -23.7580  -9.5153  -9.5153  -9.0670  -9.0670  -9.0298  -9.0298
    -4.8691  -4.8691  -4.4449  -4.4449  -1.7512  -1.7512  -0.2748  -0.2748
     0.0270   0.0270   0.1976   0.1976   0.6944   0.6944   0.7070   0.7070

          k =-0.5000 0.2438 0.0000 ( 24064 PWs)   bands (ev):

   -23.7718 -23.7718  -9.3086  -9.3086  -9.0576  -9.0576  -8.9431  -8.9431
    -5.3085  -5.3085  -4.4853  -4.4853  -0.9435  -0.9435  -0.2469  -0.2469
    -0.0865  -0.0865   0.1091   0.1091   0.4877   0.4877   0.6545   0.6545

          k =-0.5000 0.2438 0.3611 ( 24106 PWs)   bands (ev):

   -23.7649 -23.7649  -9.2860  -9.2860  -9.1791  -9.1791  -9.0233  -9.0233
    -4.9016  -4.9016  -4.6431  -4.6431  -1.1906  -1.1906  -0.5762  -0.5762
     0.0293   0.0293   0.2377   0.2377   0.5681   0.5681   0.7259   0.7259

          k =-0.5000 0.2438-0.7221 ( 24144 PWs)   bands (ev):

   -23.7579 -23.7579  -9.4933  -9.4933  -9.0860  -9.0860  -9.0407  -9.0407
    -4.8851  -4.8851  -4.4198  -4.4198  -1.6450  -1.6450  -0.4911  -0.4911
     0.0719   0.0719   0.2732   0.2732   0.6274   0.6274   0.7707   0.7707

          k =-0.5000-0.4875 0.0000 ( 24076 PWs)   bands (ev):

   -23.7718 -23.7718  -9.3573  -9.3573  -9.0042  -9.0042  -8.9427  -8.9427
    -5.2727  -5.2727  -4.5533  -4.5533  -0.7858  -0.7858  -0.4013  -0.4013
    -0.1911  -0.1911   0.3007   0.3007   0.4961   0.4961   0.6163   0.6163

          k =-0.5000-0.4875 0.3611 ( 24128 PWs)   bands (ev):

   -23.7649 -23.7649  -9.2590  -9.2590  -9.2272  -9.2272  -9.0043  -9.0043
    -4.8298  -4.8298  -4.7203  -4.7203  -1.1787  -1.1787  -0.6154  -0.6154
     0.1846   0.1846   0.3256   0.3256   0.4727   0.4727   0.6324   0.6324

          k =-0.5000-0.4875-0.7221 ( 24112 PWs)   bands (ev):

   -23.7579 -23.7579  -9.4683  -9.4683  -9.1117  -9.1117  -9.0481  -9.0481
    -4.9004  -4.9004  -4.3953  -4.3953  -1.4824  -1.4824  -0.7922  -0.7922
     0.3021   0.3021   0.3494   0.3494   0.4954   0.4954   0.7356   0.7356

     highest occupied level (ev):     0.8886

!    total energy              =    -156.47485782 Ry
     estimated scf accuracy    <          6.2E-13 Ry

     The total energy is the sum of the following terms:
     one-electron contribution =     -21.46491285 Ry
     hartree contribution      =      25.27072877 Ry
     xc contribution           =     -49.14501089 Ry
     ewald contribution        =    -111.13566285 Ry

     convergence has been achieved in   3 iterations

     Forces acting on atoms (cartesian axes, Ry/au):

     atom    1 type  2   force =     0.00000000    0.00000000    0.00000687
     atom    2 type  2   force =     0.00000000    0.00000000   -0.00000687
     atom    3 type  1   force =    -0.00000119   -0.00000007   -0.00000936
     atom    4 type  1   force =     0.00000119    0.00000007   -0.00000936
     atom    5 type  1   force =    -0.00000119    0.00000007    0.00000936
     atom    6 type  1   force =     0.00000119   -0.00000007    0.00000936
     atom    7 type  3   force =    -0.00000350   -0.00000173   -0.00001863
     atom    8 type  3   force =     0.00000350    0.00000173   -0.00001863
     atom    9 type  3   force =    -0.00000350    0.00000173    0.00001863
     atom   10 type  3   force =     0.00000350   -0.00000173    0.00001863
     atom   11 type  3   force =    -0.00000243    0.00000424    0.00000390
     atom   12 type  3   force =     0.00000243   -0.00000424    0.00000390
     atom   13 type  3   force =    -0.00000243   -0.00000424   -0.00000390
     atom   14 type  3   force =     0.00000243    0.00000424   -0.00000390
     atom   15 type  3   force =     0.00002113   -0.00000608   -0.00000179
     atom   16 type  3   force =    -0.00002113    0.00000608   -0.00000179
     atom   17 type  3   force =     0.00002113    0.00000608    0.00000179
     atom   18 type  3   force =    -0.00002113   -0.00000608    0.00000179
     atom   19 type  3   force =     0.00001958   -0.00000729   -0.00000425
     atom   20 type  3   force =    -0.00001958    0.00000729   -0.00000425
     atom   21 type  3   force =     0.00001958    0.00000729    0.00000425
     atom   22 type  3   force =    -0.00001958   -0.00000729    0.00000425

     Total force =     0.000076     Total SCF correction =     0.000001


     Computing stress (Cartesian axis) and pressure

          total   stress  (Ry/bohr**3)                   (kbar)     P=       -0.00
  -0.00000003   0.00000000   0.00000000           -0.00        0.00        0.00
   0.00000000  -0.00000006   0.00000000            0.00       -0.01        0.00
   0.00000000   0.00000000   0.00000005            0.00        0.00        0.01

     Volume is kept fixed: isostatic pressure set to zero
     Message from routine bfgs:
     history already reset at previous step: exiting
     Energy error            =      6.4E-09 Ry
     Gradient error          =      2.1E-05 Ry/Bohr
     Cell gradient error     =      9.3E-03 kbar
ibrav =      8
 celldm(1) =     12.61917836
 celldm(2) =      1.02556884
 celldm(3) =      0.69239971
Input lattice vectors:
     0.99999801     0.00000000     0.00000000
     0.00000000     1.02556680     0.00000000
     0.00000000     0.00000000     0.69239833
New lattice vectors in INITIAL alat:
     0.99999801     0.00000000     0.00000000
     0.00000000     1.02556680     0.00000000
     0.00000000     0.00000000     0.69239833
New lattice vectors in NEW alat (for information only):
     1.00000000     0.00000000     0.00000000
     0.00000000     1.02556884     0.00000000
     0.00000000     0.00000000     0.69239971
Discrepancy in bohr =     0.000000    0.000000    0.000000

     bfgs failed after   4 scf cycles and   3 bfgs steps, convergence not achieved
     (criteria: energy <  1.0E-05 Ry, force <  1.0E-05 Ry/Bohr, cell <  5.0E-01 kbar)

     End of BFGS Geometry Optimization

     Final enthalpy           =    -156.4748578187 Ry

     File ./pwscf.bfgs deleted, as requested
Begin final coordinates
     new unit-cell volume =   1426.97029 a.u.^3 (   211.45518 Ang^3 )
     density =      2.62307 g/cm^3

CELL_PARAMETERS (alat= 12.61920353)
   0.999998005   0.000000000   0.000000000
   0.000000000   1.025566798   0.000000000
   0.000000000   0.000000000   0.692398326

ATOMIC_POSITIONS (crystal)
Ba               0.5000000000        0.5000000000        0.5001029829
Ba               0.0000000000        0.0000000000        0.9998970171
B                0.6102567886        0.2392021717        0.0000617443
B                0.3897432114        0.7607978283        0.0000617443
B                0.1102567886        0.2607978283        0.4999382557
B                0.8897432114        0.7392021717        0.4999382557
H                0.4340963416        0.2921553140        0.0002249934
H                0.5659036584        0.7078446860        0.0002249934
H                0.9340963416        0.2078446860        0.4997750066
H                0.0659036584        0.7921553140        0.4997750066
H                0.7220597526        0.3835560752       -0.0000066534
H                0.2779402474        0.6164439248       -0.0000066534
H                0.2220597526        0.1164439248        0.5000066534
H                0.7779402474        0.8835560752        0.5000066534
H                0.6392553939        0.1420925845        0.7804970555
H                0.3607446061        0.8579074155        0.7804970555
H                0.1392553939        0.3579074155        0.7195029445
H                0.8607446061        0.6420925845        0.7195029445
H                0.3605379386        0.8579537222        0.2195233478
H                0.6394620614        0.1420462778        0.2195233478
H                0.8605379386        0.6420462778        0.2804766522
H                0.1394620614        0.3579537222        0.2804766522
End final coordinates



     Writing config-only to output data dir ./pwscf.save/ :
     XML data file

     Writing all to output data dir ./pwscf.save/ :
     XML data file, charge density, pseudopotentials, collected wavefunctions

     init_run     :      4.21s CPU      4.43s WALL (       1 calls)
     electrons    :    167.07s CPU    172.17s WALL (       4 calls)
     update_pot   :      0.27s CPU      0.32s WALL (       3 calls)
     forces       :      6.91s CPU      7.05s WALL (       4 calls)
     stress       :     25.14s CPU     25.25s WALL (       4 calls)

     Called by init_run:
     wfcinit      :      3.27s CPU      3.41s WALL (       1 calls)
     potinit      :      0.27s CPU      0.27s WALL (       1 calls)
     hinit0       :      0.47s CPU      0.50s WALL (       1 calls)

     Called by electrons:
     c_bands      :    144.77s CPU    148.97s WALL (      23 calls)
     sum_band     :     19.15s CPU     19.87s WALL (      23 calls)
     v_of_rho     :      1.39s CPU      1.48s WALL (      24 calls)
     newd         :      2.00s CPU      2.06s WALL (      24 calls)
     mix_rho      :      0.14s CPU      0.15s WALL (      23 calls)

     Called by c_bands:
     init_us_2    :      3.93s CPU      3.98s WALL (    1485 calls)
     cegterg      :    138.06s CPU    142.21s WALL (     621 calls)

     Called by *egterg:
     cdiaghg      :      1.68s CPU      1.69s WALL (    2253 calls)
     h_psi        :     91.54s CPU     95.74s WALL (    2442 calls)
     s_psi        :     21.33s CPU     21.36s WALL (    2442 calls)
     g_psi        :      0.43s CPU      0.43s WALL (    1794 calls)

     Called by h_psi:
     h_psi:calbec :     22.22s CPU     22.68s WALL (    2442 calls)
     vloc_psi     :     48.04s CPU     51.76s WALL (    2442 calls)
     add_vuspsi   :     21.03s CPU     21.07s WALL (    2442 calls)

     General routines
     calbec       :     35.44s CPU     36.05s WALL (    3603 calls)
     fft          :      1.24s CPU      1.36s WALL (     410 calls)
     ffts         :      0.20s CPU      0.20s WALL (      47 calls)
     fftw         :     48.38s CPU     52.07s WALL (  108626 calls)
     interpolate  :      0.25s CPU      0.26s WALL (      24 calls)
     davcio       :      0.00s CPU      0.05s WALL (      27 calls)

     Parallel routines

     PWSCF        :   3m24.23s CPU   3m30.21s WALL


   This run was terminated on:  14:17:37  12Jul2024            

=------------------------------------------------------------------------------=
   JOB DONE.
=------------------------------------------------------------------------------=
