
     Program PHONON v.7.3.1 starts on 12Jul2024 at 12:21: 6 

     This program is part of the open-source Quantum ESPRESSO suite
     for quantum simulation of materials; please cite
         "P. Giannozzi et al., J. Phys.:Condens. Matter 21 395502 (2009);
         "P. Giannozzi et al., J. Phys.:Condens. Matter 29 465901 (2017);
         "P. Giannozzi et al., J. Chem. Phys. 152 154105 (2020);
          URL http://www.quantum-espresso.org", 
     in publications or presentations arising from this work. More details at
     http://www.quantum-espresso.org/quote

     Parallel version (MPI), running on    24 processors

     MPI processes distributed on     1 nodes
     94215 MiB available memory on the printing compute node when the environment starts

     Waiting for input...
     Reading input from standard input

     Reading xml data from directory:

     ./pwscf.save/

     R & G space division:  proc/nbgrp/npool/nimage =      24
     Subspace diagonalization in iterative solution of the eigenvalue problem:
     a serial algorithm will be used


     IMPORTANT: XC functional enforced from input :
     Exchange-correlation= PBESOL
                           (   1   4  10   8   0   0   0)
     Any further DFT definition will be discarded
     Please, verify this is what you really want


     Parallelization info
     --------------------
     sticks:   dense  smooth     PW     G-vecs:    dense   smooth      PW
     Min         439     219     59                23067     8152    1145
     Max         441     221     60                23069     8154    1148
     Sum       10539    5271   1425               553621   195665   27525

     Using Slab Decomposition

     Reading collected, re-writing distributed wavefunctions in ./


     Dynamical matrices for ( 3, 3, 3)  uniform grid of q-points
     (   8 q-points):
       N         xq(1)         xq(2)         xq(3) 
       1   0.000000000   0.000000000   0.000000000
       2   0.000000000   0.000000000   0.485222590
       3   0.000000000   0.326476207   0.000000000
       4   0.000000000   0.326476207   0.485222590
       5   0.333333333   0.000000000   0.000000000
       6   0.333333333   0.000000000   0.485222590
       7   0.333333333   0.326476207   0.000000000
       8   0.333333333   0.326476207   0.485222590

     Number and degeneracy of irreps per q-point
       N         xq(1)         xq(2)         xq(3)   N irreps
       1   0.000000000   0.000000000   0.000000000      66
     No degeneracy
       2   0.000000000   0.000000000   0.485222590      66
     No degeneracy
       3   0.000000000   0.326476207   0.000000000      66
     No degeneracy
       4   0.000000000   0.326476207   0.485222590      66
     No degeneracy
       5   0.333333333   0.000000000   0.000000000      66
     No degeneracy
       6   0.333333333   0.000000000   0.485222590      66
     No degeneracy
       7   0.333333333   0.326476207   0.000000000      66
     No degeneracy
       8   0.333333333   0.326476207   0.485222590      66
     No degeneracy

     Saving dvscf to file. Distribute only q points, not irreducible representations.

     Calculation of q =    0.0000000   0.0000000   0.0000000

                                                                                

     bravais-lattice index     =            8
     lattice parameter (alat)  =      12.7342  a.u.
     unit-cell volume          =    1448.3748 (a.u.)^3
     number of atoms/cell      =           22
     number of atomic types    =            3
     kinetic-energy cut-off    =     100.0000  Ry
     charge density cut-off    =     800.0000  Ry
     convergence threshold     =      1.0E-14
     beta                      =       0.7000
     number of iterations used =            4
     Exchange-correlation= PBESOL
                           (   1   4  10   8   0   0   0)


     celldm(1)=   12.73421  celldm(2)=    1.02100  celldm(3)=    0.68697
     celldm(4)=    0.00000  celldm(5)=    0.00000  celldm(6)=    0.00000

     crystal axes: (cart. coord. in units of alat)
               a(1) = (  1.0000  0.0000  0.0000 )  
               a(2) = (  0.0000  1.0210  0.0000 )  
               a(3) = (  0.0000  0.0000  0.6870 )  

     reciprocal axes: (cart. coord. in units 2 pi/alat)
               b(1) = (  1.0000  0.0000  0.0000 )  
               b(2) = (  0.0000  0.9794  0.0000 )  
               b(3) = (  0.0000  0.0000  1.4557 )  


     Atoms inside the unit cell: 

     Cartesian axes

     site n.  atom      mass           positions (alat units)
        1  Ba    137.3270   tau(    1) = (    0.50000    0.51050    0.34349  )
        2  Ba    137.3270   tau(    2) = (    0.00000    0.00000    0.68697  )
        3  B      10.8110   tau(    3) = (    0.61255    0.24597    0.00000  )
        4  B      10.8110   tau(    4) = (    0.38745    0.77503    0.00000  )
        5  B      10.8110   tau(    5) = (    0.11255    0.26453    0.34348  )
        6  B      10.8110   tau(    6) = (    0.88745    0.75647    0.34348  )
        7  H       1.0079   tau(    7) = (    0.43723    0.29754   -0.00001  )
        8  H       1.0079   tau(    8) = (    0.56277    0.72346   -0.00001  )
        9  H       1.0079   tau(    9) = (    0.93723    0.21296    0.34350  )
       10  H       1.0079   tau(   10) = (    0.06277    0.80805    0.34350  )
       11  H       1.0079   tau(   11) = (    0.72141    0.39411    0.00001  )
       12  H       1.0079   tau(   12) = (    0.27859    0.62690    0.00001  )
       13  H       1.0079   tau(   13) = (    0.22141    0.11639    0.34348  )
       14  H       1.0079   tau(   14) = (    0.77859    0.90461    0.34348  )
       15  H       1.0079   tau(   15) = (    0.64262    0.14761    0.53629  )
       16  H       1.0079   tau(   16) = (    0.35738    0.87340    0.53629  )
       17  H       1.0079   tau(   17) = (    0.14262    0.36289    0.49416  )
       18  H       1.0079   tau(   18) = (    0.85738    0.65811    0.49416  )
       19  H       1.0079   tau(   19) = (    0.35739    0.87339    0.15068  )
       20  H       1.0079   tau(   20) = (    0.64261    0.14761    0.15068  )
       21  H       1.0079   tau(   21) = (    0.85739    0.65811    0.19280  )
       22  H       1.0079   tau(   22) = (    0.14261    0.36289    0.19280  )

     Computing dynamical matrix for 
                    q = (   0.0000000   0.0000000   0.0000000 )

      5 Sym.Ops. (with q -> -q+G )


     G cutoff = 3286.0508  (  23069 G-vectors)     FFT grid: (120,120, 80)
     G cutoff = 1643.0254  (   8153 G-vectors)  smooth grid: ( 90, 90, 60)
     number of k points=    27

     PseudoPot. # 1 for B  read from file:
     /home/mehlhorn/pseudos/b_pbesol_v1.4.uspp.F.UPF
     MD5 check sum: 369b69bef2c3aeed4453bd8b804fd6a8
     Pseudo is Ultrasoft + core correction, Zval =  3.0
     Generated by new atomic code, or converted to UPF format
     Using radial grid of  781 points,  4 beta functions with: 
                l(1) =   0
                l(2) =   0
                l(3) =   1
                l(4) =   1
     Q(r) pseudized with  8 coefficients,  rinner =    1.100   1.100   1.100


     PseudoPot. # 2 for Ba read from file:
     /home/mehlhorn/pseudos/Ba.nc.z_10.oncvpsp4.dojo.v4-sp.upf
     MD5 check sum: c10ed334bb677c0554edec7181ce9143
     Pseudo is Norm-conserving + core correction, Zval = 10.0
     Generated using ONCVPSP code by D. R. Hamann
     Using radial grid of 1938 points,  8 beta functions with: 
                l(1) =   0
                l(2) =   0
                l(3) =   1
                l(4) =   1
                l(5) =   2
                l(6) =   2
                l(7) =   3
                l(8) =   3

     PseudoPot. # 3 for H  read from file:
     /home/mehlhorn/pseudos/H_ONCV_PBEsol-1.0.upf
     MD5 check sum: 398ef8f67c0a7342c05c87c5e19ea467
     Pseudo is Norm-conserving, Zval =  1.0
     Generated using ONCVPSP code by D. R. Hamann
     Using radial grid of 1180 points,  2 beta functions with: 
                l(1) =   0
                l(2) =   0

     Mode symmetry, D_2  (222)  point group:


     Electric field:
     Dielectric constant
     Born effective charges in two ways 


     Atomic displacements:
     There are   66 irreducible representations

     Representation     1      1 modes -  To be done

     Representation     2      1 modes -  To be done

     Representation     3      1 modes -  To be done

     Representation     4      1 modes -  To be done

     Representation     5      1 modes -  To be done

     Representation     6      1 modes -  To be done

     Representation     7      1 modes -  To be done

     Representation     8      1 modes -  To be done

     Representation     9      1 modes -  To be done

     Representation    10      1 modes -  To be done

     Representation    11      1 modes -  To be done

     Representation    12      1 modes -  To be done

     Representation    13      1 modes -  To be done

     Representation    14      1 modes -  To be done

     Representation    15      1 modes -  To be done

     Representation    16      1 modes -  To be done

     Representation    17      1 modes -  To be done

     Representation    18      1 modes -  To be done

     Representation    19      1 modes -  To be done

     Representation    20      1 modes -  To be done

     Representation    21      1 modes -  To be done

     Representation    22      1 modes -  To be done

     Representation    23      1 modes -  To be done

     Representation    24      1 modes -  To be done

     Representation    25      1 modes -  To be done

     Representation    26      1 modes -  To be done

     Representation    27      1 modes -  To be done

     Representation    28      1 modes -  To be done

     Representation    29      1 modes -  To be done

     Representation    30      1 modes -  To be done

     Representation    31      1 modes -  To be done

     Representation    32      1 modes -  To be done

     Representation    33      1 modes -  To be done

     Representation    34      1 modes -  To be done

     Representation    35      1 modes -  To be done

     Representation    36      1 modes -  To be done

     Representation    37      1 modes -  To be done

     Representation    38      1 modes -  To be done

     Representation    39      1 modes -  To be done

     Representation    40      1 modes -  To be done

     Representation    41      1 modes -  To be done

     Representation    42      1 modes -  To be done

     Representation    43      1 modes -  To be done

     Representation    44      1 modes -  To be done

     Representation    45      1 modes -  To be done

     Representation    46      1 modes -  To be done

     Representation    47      1 modes -  To be done

     Representation    48      1 modes -  To be done

     Representation    49      1 modes -  To be done

     Representation    50      1 modes -  To be done

     Representation    51      1 modes -  To be done

     Representation    52      1 modes -  To be done

     Representation    53      1 modes -  To be done

     Representation    54      1 modes -  To be done

     Representation    55      1 modes -  To be done

     Representation    56      1 modes -  To be done

     Representation    57      1 modes -  To be done

     Representation    58      1 modes -  To be done

     Representation    59      1 modes -  To be done

     Representation    60      1 modes -  To be done

     Representation    61      1 modes -  To be done

     Representation    62      1 modes -  To be done

     Representation    63      1 modes -  To be done

     Representation    64      1 modes -  To be done

     Representation    65      1 modes -  To be done

     Representation    66      1 modes -  To be done



     Alpha used in Ewald sum =   2.8000
     PHONON       :   3m14.39s CPU   3m18.40s WALL


     Electric Fields Calculation

      iter #   1 total cpu time :   829.3 secs   av.it.:   7.6
      thresh= 1.000E-02 alpha_mix =  0.700 |ddv_scf|^2 =  5.971E-09

      iter #   2 total cpu time :  1106.8 secs   av.it.:  16.9
      thresh= 7.727E-06 alpha_mix =  0.700 |ddv_scf|^2 =  9.864E-10

      iter #   3 total cpu time :  1361.8 secs   av.it.:  16.0
      thresh= 3.141E-06 alpha_mix =  0.700 |ddv_scf|^2 =  7.211E-11

      iter #   4 total cpu time :  1613.4 secs   av.it.:  15.7
      thresh= 8.492E-07 alpha_mix =  0.700 |ddv_scf|^2 =  1.056E-11

      iter #   5 total cpu time :  1867.1 secs   av.it.:  15.6
      thresh= 3.249E-07 alpha_mix =  0.700 |ddv_scf|^2 =  9.789E-13

      iter #   6 total cpu time :  2115.7 secs   av.it.:  15.7
      thresh= 9.894E-08 alpha_mix =  0.700 |ddv_scf|^2 =  2.345E-14

      iter #   7 total cpu time :  2374.2 secs   av.it.:  16.0
      thresh= 1.531E-08 alpha_mix =  0.700 |ddv_scf|^2 =  3.223E-15

     End of electric fields calculation

          Dielectric constant in cartesian axis 

          (       3.081740896       0.000000000       0.000000000 )
          (       0.000000000       3.138668513       0.000000000 )
          (       0.000000000       0.000000000       3.282954252 )

          Effective charges (d Force / dE) in cartesian axis without acoustic sum rule applied (asr)

           atom    1  Ba    Mean Z*:        2.64715
      Ex  (        2.48089       -0.05054        0.00000 )
      Ey  (        0.28457        2.50145        0.00000 )
      Ez  (        0.00000        0.00000        2.95912 )
           atom    2  Ba    Mean Z*:        2.64715
      Ex  (        2.48089        0.05054        0.00000 )
      Ey  (       -0.28457        2.50145        0.00000 )
      Ez  (        0.00000        0.00000        2.95912 )
           atom    3  B     Mean Z*:       -0.12661
      Ex  (       -0.14483        0.03073       -0.00001 )
      Ey  (        0.17445       -0.03540        0.00002 )
      Ez  (        0.00002        0.00001       -0.19961 )
           atom    4  B     Mean Z*:       -0.12661
      Ex  (       -0.14483        0.03073        0.00001 )
      Ey  (        0.17445       -0.03540       -0.00002 )
      Ez  (       -0.00002       -0.00001       -0.19961 )
           atom    5  B     Mean Z*:       -0.12661
      Ex  (       -0.14483       -0.03073        0.00001 )
      Ey  (       -0.17445       -0.03540        0.00002 )
      Ez  (       -0.00002        0.00001       -0.19961 )
           atom    6  B     Mean Z*:       -0.12661
      Ex  (       -0.14483       -0.03073       -0.00001 )
      Ey  (       -0.17445       -0.03540       -0.00002 )
      Ez  (        0.00002       -0.00001       -0.19961 )
           atom    7  H     Mean Z*:       -0.30957
      Ex  (       -0.43244        0.13865       -0.00002 )
      Ey  (        0.14477       -0.24746        0.00003 )
      Ez  (       -0.00002        0.00003       -0.24880 )
           atom    8  H     Mean Z*:       -0.30957
      Ex  (       -0.43244        0.13865        0.00002 )
      Ey  (        0.14477       -0.24746       -0.00003 )
      Ez  (        0.00002       -0.00003       -0.24880 )
           atom    9  H     Mean Z*:       -0.30957
      Ex  (       -0.43244       -0.13865        0.00002 )
      Ey  (       -0.14477       -0.24746        0.00003 )
      Ez  (        0.00002        0.00003       -0.24880 )
           atom   10  H     Mean Z*:       -0.30957
      Ex  (       -0.43244       -0.13865       -0.00002 )
      Ey  (       -0.14477       -0.24746       -0.00003 )
      Ez  (       -0.00002       -0.00003       -0.24880 )
           atom   11  H     Mean Z*:       -0.31171
      Ex  (       -0.25979       -0.03764        0.00000 )
      Ey  (       -0.11177       -0.43144       -0.00002 )
      Ez  (       -0.00000       -0.00002       -0.24389 )
           atom   12  H     Mean Z*:       -0.31171
      Ex  (       -0.25979       -0.03764       -0.00000 )
      Ey  (       -0.11177       -0.43144        0.00002 )
      Ez  (        0.00000        0.00002       -0.24389 )
           atom   13  H     Mean Z*:       -0.31171
      Ex  (       -0.25979        0.03764       -0.00000 )
      Ey  (        0.11177       -0.43144       -0.00002 )
      Ez  (        0.00000       -0.00002       -0.24389 )
           atom   14  H     Mean Z*:       -0.31171
      Ex  (       -0.25979        0.03764        0.00000 )
      Ey  (        0.11177       -0.43144        0.00002 )
      Ez  (       -0.00000        0.00002       -0.24389 )
           atom   15  H     Mean Z*:       -0.28762
      Ex  (       -0.20184        0.14807        0.06251 )
      Ey  (        0.10013       -0.26761       -0.09647 )
      Ez  (        0.02337       -0.11313       -0.39342 )
           atom   16  H     Mean Z*:       -0.28762
      Ex  (       -0.20184        0.14807       -0.06251 )
      Ey  (        0.10013       -0.26761        0.09647 )
      Ez  (       -0.02337        0.11313       -0.39342 )
           atom   17  H     Mean Z*:       -0.28762
      Ex  (       -0.20184       -0.14807       -0.06251 )
      Ey  (       -0.10013       -0.26761       -0.09647 )
      Ez  (       -0.02337       -0.11313       -0.39342 )
           atom   18  H     Mean Z*:       -0.28762
      Ex  (       -0.20184       -0.14807        0.06251 )
      Ey  (       -0.10013       -0.26761        0.09647 )
      Ez  (        0.02337        0.11313       -0.39342 )
           atom   19  H     Mean Z*:       -0.28762
      Ex  (       -0.20181        0.14804        0.06247 )
      Ey  (        0.10010       -0.26760       -0.09646 )
      Ez  (        0.02335       -0.11313       -0.39344 )
           atom   20  H     Mean Z*:       -0.28762
      Ex  (       -0.20181        0.14804       -0.06247 )
      Ey  (        0.10010       -0.26760        0.09646 )
      Ez  (       -0.02335        0.11313       -0.39344 )
           atom   21  H     Mean Z*:       -0.28762
      Ex  (       -0.20181       -0.14804       -0.06247 )
      Ey  (       -0.10010       -0.26760       -0.09646 )
      Ez  (       -0.02335       -0.11313       -0.39344 )
           atom   22  H     Mean Z*:       -0.28762
      Ex  (       -0.20181       -0.14804        0.06247 )
      Ey  (       -0.10010       -0.26760        0.09646 )
      Ez  (        0.02335        0.11313       -0.39344 )

          Effective charges Sum: Mean:        0.00180
             -0.00110        0.00000        0.00000
              0.00000        0.00487        0.00000
              0.00000        0.00000        0.00162

          Effective charges (d Force / dE) in cartesian axis with asr applied: 
           atom    1  Ba    Mean Z*:        2.64707
      E*x (        2.48094       -0.05054        0.00000 )
      E*y (        0.28457        2.50123       -0.00000 )
      E*z (        0.00000       -0.00000        2.95905 )
           atom    2  Ba    Mean Z*:        2.64707
      E*x (        2.48094        0.05054        0.00000 )
      E*y (       -0.28457        2.50123       -0.00000 )
      E*z (        0.00000       -0.00000        2.95905 )
           atom    3  B     Mean Z*:       -0.12669
      E*x (       -0.14478        0.03073       -0.00001 )
      E*y (        0.17445       -0.03562        0.00002 )
      E*z (        0.00002        0.00001       -0.19968 )
           atom    4  B     Mean Z*:       -0.12669
      E*x (       -0.14478        0.03073        0.00001 )
      E*y (        0.17445       -0.03562       -0.00002 )
      E*z (       -0.00002       -0.00001       -0.19968 )
           atom    5  B     Mean Z*:       -0.12669
      E*x (       -0.14478       -0.03073        0.00001 )
      E*y (       -0.17445       -0.03562        0.00002 )
      E*z (       -0.00002        0.00001       -0.19968 )
           atom    6  B     Mean Z*:       -0.12669
      E*x (       -0.14478       -0.03073       -0.00001 )
      E*y (       -0.17445       -0.03562       -0.00002 )
      E*z (        0.00002       -0.00001       -0.19968 )
           atom    7  H     Mean Z*:       -0.30965
      E*x (       -0.43239        0.13865       -0.00002 )
      E*y (        0.14477       -0.24768        0.00003 )
      E*z (       -0.00002        0.00003       -0.24887 )
           atom    8  H     Mean Z*:       -0.30965
      E*x (       -0.43239        0.13865        0.00002 )
      E*y (        0.14477       -0.24768       -0.00003 )
      E*z (        0.00002       -0.00003       -0.24887 )
           atom    9  H     Mean Z*:       -0.30965
      E*x (       -0.43239       -0.13865        0.00002 )
      E*y (       -0.14477       -0.24768        0.00003 )
      E*z (        0.00002        0.00003       -0.24887 )
           atom   10  H     Mean Z*:       -0.30965
      E*x (       -0.43239       -0.13865       -0.00002 )
      E*y (       -0.14477       -0.24768       -0.00003 )
      E*z (       -0.00002       -0.00003       -0.24887 )
           atom   11  H     Mean Z*:       -0.31179
      E*x (       -0.25974       -0.03764        0.00000 )
      E*y (       -0.11177       -0.43166       -0.00002 )
      E*z (       -0.00000       -0.00002       -0.24397 )
           atom   12  H     Mean Z*:       -0.31179
      E*x (       -0.25974       -0.03764       -0.00000 )
      E*y (       -0.11177       -0.43166        0.00002 )
      E*z (        0.00000        0.00002       -0.24397 )
           atom   13  H     Mean Z*:       -0.31179
      E*x (       -0.25974        0.03764       -0.00000 )
      E*y (        0.11177       -0.43166       -0.00002 )
      E*z (        0.00000       -0.00002       -0.24397 )
           atom   14  H     Mean Z*:       -0.31179
      E*x (       -0.25974        0.03764        0.00000 )
      E*y (        0.11177       -0.43166        0.00002 )
      E*z (       -0.00000        0.00002       -0.24397 )
           atom   15  H     Mean Z*:       -0.28770
      E*x (       -0.20179        0.14807        0.06251 )
      E*y (        0.10013       -0.26783       -0.09647 )
      E*z (        0.02337       -0.11313       -0.39349 )
           atom   16  H     Mean Z*:       -0.28770
      E*x (       -0.20179        0.14807       -0.06251 )
      E*y (        0.10013       -0.26783        0.09647 )
      E*z (       -0.02337        0.11313       -0.39349 )
           atom   17  H     Mean Z*:       -0.28770
      E*x (       -0.20179       -0.14807       -0.06251 )
      E*y (       -0.10013       -0.26783       -0.09647 )
      E*z (       -0.02337       -0.11313       -0.39349 )
           atom   18  H     Mean Z*:       -0.28770
      E*x (       -0.20179       -0.14807        0.06251 )
      E*y (       -0.10013       -0.26783        0.09647 )
      E*z (        0.02337        0.11313       -0.39349 )
           atom   19  H     Mean Z*:       -0.28770
      E*x (       -0.20176        0.14804        0.06247 )
      E*y (        0.10010       -0.26782       -0.09646 )
      E*z (        0.02335       -0.11313       -0.39351 )
           atom   20  H     Mean Z*:       -0.28770
      E*x (       -0.20176        0.14804       -0.06247 )
      E*y (        0.10010       -0.26782        0.09646 )
      E*z (       -0.02335        0.11313       -0.39351 )
           atom   21  H     Mean Z*:       -0.28770
      E*x (       -0.20176       -0.14804       -0.06247 )
      E*y (       -0.10010       -0.26782       -0.09646 )
      E*z (       -0.02335       -0.11313       -0.39351 )
           atom   22  H     Mean Z*:       -0.28770
      E*x (       -0.20176       -0.14804        0.06247 )
      E*y (       -0.10010       -0.26782        0.09646 )
      E*z (        0.02335        0.11313       -0.39351 )


     Representation #   1 mode #   1

     Self-consistent Calculation

      iter #   1 total cpu time :  4800.8 secs   av.it.:   3.0
      thresh= 1.000E-02 alpha_mix =  0.700 |ddv_scf|^2 =  1.712E-09

      iter #   2 total cpu time :  4887.9 secs   av.it.:  15.5
      thresh= 4.138E-06 alpha_mix =  0.700 |ddv_scf|^2 =  3.637E-10

      iter #   3 total cpu time :  4972.1 secs   av.it.:  15.1
      thresh= 1.907E-06 alpha_mix =  0.700 |ddv_scf|^2 =  2.608E-12

      iter #   4 total cpu time :  5057.5 secs   av.it.:  15.6
      thresh= 1.615E-07 alpha_mix =  0.700 |ddv_scf|^2 =  4.724E-14

      iter #   5 total cpu time :  5144.6 secs   av.it.:  15.8
      thresh= 2.173E-08 alpha_mix =  0.700 |ddv_scf|^2 =  1.939E-15

     End of self-consistent calculation

     Convergence has been achieved 


     Representation #   2 mode #   2

     Self-consistent Calculation

      iter #   1 total cpu time :  5207.4 secs   av.it.:   3.0
      thresh= 1.000E-02 alpha_mix =  0.700 |ddv_scf|^2 =  1.399E-09

      iter #   2 total cpu time :  5296.3 secs   av.it.:  15.9
      thresh= 3.740E-06 alpha_mix =  0.700 |ddv_scf|^2 =  3.723E-10

      iter #   3 total cpu time :  5383.2 secs   av.it.:  15.3
      thresh= 1.929E-06 alpha_mix =  0.700 |ddv_scf|^2 =  3.035E-12

      iter #   4 total cpu time :  5471.6 secs   av.it.:  15.9
      thresh= 1.742E-07 alpha_mix =  0.700 |ddv_scf|^2 =  1.101E-13

      iter #   5 total cpu time :  5554.9 secs   av.it.:  15.8
      thresh= 3.318E-08 alpha_mix =  0.700 |ddv_scf|^2 =  4.896E-15

     End of self-consistent calculation

     Convergence has been achieved 


     Representation #   3 mode #   3

     Self-consistent Calculation

      iter #   1 total cpu time :  5615.6 secs   av.it.:   3.0
      thresh= 1.000E-02 alpha_mix =  0.700 |ddv_scf|^2 =  5.672E-10

      iter #   2 total cpu time :  5701.7 secs   av.it.:  15.9
      thresh= 2.382E-06 alpha_mix =  0.700 |ddv_scf|^2 =  4.581E-11

      iter #   3 total cpu time :  5788.5 secs   av.it.:  16.0
      thresh= 6.768E-07 alpha_mix =  0.700 |ddv_scf|^2 =  5.789E-12

      iter #   4 total cpu time :  5874.8 secs   av.it.:  15.8
      thresh= 2.406E-07 alpha_mix =  0.700 |ddv_scf|^2 =  1.018E-13

      iter #   5 total cpu time :  5961.5 secs   av.it.:  15.7
      thresh= 3.190E-08 alpha_mix =  0.700 |ddv_scf|^2 =  3.593E-15

     End of self-consistent calculation

     Convergence has been achieved 


     Representation #   4 mode #   4

     Self-consistent Calculation

      iter #   1 total cpu time :  6030.5 secs   av.it.:   5.0
      thresh= 1.000E-02 alpha_mix =  0.700 |ddv_scf|^2 =  1.152E-08

      iter #   2 total cpu time :  6117.0 secs   av.it.:  15.9
      thresh= 1.073E-05 alpha_mix =  0.700 |ddv_scf|^2 =  2.395E-09

      iter #   3 total cpu time :  6199.8 secs   av.it.:  15.1
      thresh= 4.894E-06 alpha_mix =  0.700 |ddv_scf|^2 =  1.925E-11

      iter #   4 total cpu time :  6284.3 secs   av.it.:  15.7
      thresh= 4.387E-07 alpha_mix =  0.700 |ddv_scf|^2 =  1.336E-12

      iter #   5 total cpu time :  6368.7 secs   av.it.:  15.7
      thresh= 1.156E-07 alpha_mix =  0.700 |ddv_scf|^2 =  1.693E-14

      iter #   6 total cpu time :  6453.7 secs   av.it.:  15.9
      thresh= 1.301E-08 alpha_mix =  0.700 |ddv_scf|^2 =  1.958E-16

     End of self-consistent calculation

     Convergence has been achieved 


     Representation #   5 mode #   5

     Self-consistent Calculation

      iter #   1 total cpu time :  6547.2 secs   av.it.:   6.5
      thresh= 1.000E-02 alpha_mix =  0.700 |ddv_scf|^2 =  5.807E-08

      iter #   2 total cpu time :  6630.6 secs   av.it.:  15.3
      thresh= 2.410E-05 alpha_mix =  0.700 |ddv_scf|^2 =  1.587E-08

      iter #   3 total cpu time :  6711.1 secs   av.it.:  14.6
      thresh= 1.260E-05 alpha_mix =  0.700 |ddv_scf|^2 =  3.196E-11

      iter #   4 total cpu time :  6793.7 secs   av.it.:  15.3
      thresh= 5.653E-07 alpha_mix =  0.700 |ddv_scf|^2 =  1.109E-12

      iter #   5 total cpu time :  6878.6 secs   av.it.:  14.8
      thresh= 1.053E-07 alpha_mix =  0.700 |ddv_scf|^2 =  1.084E-14

      iter #   6 total cpu time :  6963.3 secs   av.it.:  14.7
      thresh= 1.041E-08 alpha_mix =  0.700 |ddv_scf|^2 =  2.061E-16

     End of self-consistent calculation

     Convergence has been achieved 


     Representation #   6 mode #   6

     Self-consistent Calculation

      iter #   1 total cpu time :  7031.3 secs   av.it.:   3.0
      thresh= 1.000E-02 alpha_mix =  0.700 |ddv_scf|^2 =  1.666E-09

      iter #   2 total cpu time :  7117.3 secs   av.it.:  15.9
      thresh= 4.082E-06 alpha_mix =  0.700 |ddv_scf|^2 =  4.544E-10

      iter #   3 total cpu time :  7201.0 secs   av.it.:  15.4
      thresh= 2.132E-06 alpha_mix =  0.700 |ddv_scf|^2 =  4.333E-12

      iter #   4 total cpu time :  7284.6 secs   av.it.:  15.6
      thresh= 2.082E-07 alpha_mix =  0.700 |ddv_scf|^2 =  2.131E-13

      iter #   5 total cpu time :  7370.8 secs   av.it.:  15.5
      thresh= 4.616E-08 alpha_mix =  0.700 |ddv_scf|^2 =  4.950E-15

     End of self-consistent calculation

     Convergence has been achieved 


     Representation #   7 mode #   7

     Self-consistent Calculation

      iter #   1 total cpu time :  7431.9 secs   av.it.:   3.0
      thresh= 1.000E-02 alpha_mix =  0.700 |ddv_scf|^2 =  1.361E-09

      iter #   2 total cpu time :  7515.4 secs   av.it.:  15.4
      thresh= 3.690E-06 alpha_mix =  0.700 |ddv_scf|^2 =  1.192E-10

      iter #   3 total cpu time :  7601.4 secs   av.it.:  15.5
      thresh= 1.092E-06 alpha_mix =  0.700 |ddv_scf|^2 =  1.214E-12

      iter #   4 total cpu time :  7690.2 secs   av.it.:  15.9
      thresh= 1.102E-07 alpha_mix =  0.700 |ddv_scf|^2 =  1.062E-13

      iter #   5 total cpu time :  7778.6 secs   av.it.:  15.9
      thresh= 3.258E-08 alpha_mix =  0.700 |ddv_scf|^2 =  5.808E-15

     End of self-consistent calculation

     Convergence has been achieved 


     Representation #   8 mode #   8

     Self-consistent Calculation

      iter #   1 total cpu time :  7839.5 secs   av.it.:   3.0
      thresh= 1.000E-02 alpha_mix =  0.700 |ddv_scf|^2 =  8.256E-10

      iter #   2 total cpu time :  7923.8 secs   av.it.:  15.7
      thresh= 2.873E-06 alpha_mix =  0.700 |ddv_scf|^2 =  6.667E-11

      iter #   3 total cpu time :  8010.7 secs   av.it.:  15.8
      thresh= 8.165E-07 alpha_mix =  0.700 |ddv_scf|^2 =  2.066E-12

      iter #   4 total cpu time :  8100.2 secs   av.it.:  15.9
      thresh= 1.437E-07 alpha_mix =  0.700 |ddv_scf|^2 =  1.713E-13

      iter #   5 total cpu time :  8189.7 secs   av.it.:  15.7
      thresh= 4.139E-08 alpha_mix =  0.700 |ddv_scf|^2 =  5.755E-15

     End of self-consistent calculation

     Convergence has been achieved 


     Representation #   9 mode #   9

     Self-consistent Calculation

      iter #   1 total cpu time :  8259.4 secs   av.it.:   4.7
      thresh= 1.000E-02 alpha_mix =  0.700 |ddv_scf|^2 =  7.769E-09

      iter #   2 total cpu time :  8350.6 secs   av.it.:  16.0
      thresh= 8.814E-06 alpha_mix =  0.700 |ddv_scf|^2 =  1.133E-09

      iter #   3 total cpu time :  8435.7 secs   av.it.:  15.5
      thresh= 3.365E-06 alpha_mix =  0.700 |ddv_scf|^2 =  2.117E-11

      iter #   4 total cpu time :  8520.4 secs   av.it.:  15.8
      thresh= 4.601E-07 alpha_mix =  0.700 |ddv_scf|^2 =  1.576E-12

      iter #   5 total cpu time :  8604.9 secs   av.it.:  15.7
      thresh= 1.255E-07 alpha_mix =  0.700 |ddv_scf|^2 =  2.843E-14

      iter #   6 total cpu time :  8691.8 secs   av.it.:  15.9
      thresh= 1.686E-08 alpha_mix =  0.700 |ddv_scf|^2 =  2.199E-16

     End of self-consistent calculation

     Convergence has been achieved 


     Representation #  10 mode #  10

     Self-consistent Calculation

      iter #   1 total cpu time :  8772.2 secs   av.it.:   3.0
      thresh= 1.000E-02 alpha_mix =  0.700 |ddv_scf|^2 =  1.067E-09

      iter #   2 total cpu time :  8863.4 secs   av.it.:  15.9
      thresh= 3.266E-06 alpha_mix =  0.700 |ddv_scf|^2 =  1.095E-10

      iter #   3 total cpu time :  8950.9 secs   av.it.:  15.9
      thresh= 1.047E-06 alpha_mix =  0.700 |ddv_scf|^2 =  4.121E-12

      iter #   4 total cpu time :  9037.6 secs   av.it.:  15.9
      thresh= 2.030E-07 alpha_mix =  0.700 |ddv_scf|^2 =  1.741E-13

      iter #   5 total cpu time :  9123.0 secs   av.it.:  15.9
      thresh= 4.173E-08 alpha_mix =  0.700 |ddv_scf|^2 =  6.411E-15

     End of self-consistent calculation

     Convergence has been achieved 


     Representation #  11 mode #  11

     Self-consistent Calculation

      iter #   1 total cpu time :  9184.7 secs   av.it.:   3.0
      thresh= 1.000E-02 alpha_mix =  0.700 |ddv_scf|^2 =  8.477E-10

      iter #   2 total cpu time :  9272.6 secs   av.it.:  15.9
      thresh= 2.911E-06 alpha_mix =  0.700 |ddv_scf|^2 =  1.517E-10

      iter #   3 total cpu time :  9358.6 secs   av.it.:  15.7
      thresh= 1.232E-06 alpha_mix =  0.700 |ddv_scf|^2 =  6.400E-12

      iter #   4 total cpu time :  9447.1 secs   av.it.:  15.8
      thresh= 2.530E-07 alpha_mix =  0.700 |ddv_scf|^2 =  1.034E-13

      iter #   5 total cpu time :  9533.1 secs   av.it.:  15.4
      thresh= 3.216E-08 alpha_mix =  0.700 |ddv_scf|^2 =  4.301E-15

     End of self-consistent calculation

     Convergence has been achieved 


     Representation #  12 mode #  12

     Self-consistent Calculation

      iter #   1 total cpu time :  9594.4 secs   av.it.:   3.0
      thresh= 1.000E-02 alpha_mix =  0.700 |ddv_scf|^2 =  7.840E-10

      iter #   2 total cpu time :  9682.5 secs   av.it.:  15.9
      thresh= 2.800E-06 alpha_mix =  0.700 |ddv_scf|^2 =  1.163E-10

      iter #   3 total cpu time :  9769.6 secs   av.it.:  15.9
      thresh= 1.079E-06 alpha_mix =  0.700 |ddv_scf|^2 =  4.330E-12

      iter #   4 total cpu time :  9856.8 secs   av.it.:  15.9
      thresh= 2.081E-07 alpha_mix =  0.700 |ddv_scf|^2 =  2.750E-13

      iter #   5 total cpu time :  9942.6 secs   av.it.:  15.4
      thresh= 5.244E-08 alpha_mix =  0.700 |ddv_scf|^2 =  5.626E-15

     End of self-consistent calculation

     Convergence has been achieved 


     Representation #  13 mode #  13

     Self-consistent Calculation

      iter #   1 total cpu time : 10005.2 secs   av.it.:   3.5
      thresh= 1.000E-02 alpha_mix =  0.700 |ddv_scf|^2 =  1.760E-09

      iter #   2 total cpu time : 10092.3 secs   av.it.:  15.9
      thresh= 4.195E-06 alpha_mix =  0.700 |ddv_scf|^2 =  5.633E-10

      iter #   3 total cpu time : 10179.2 secs   av.it.:  15.1
      thresh= 2.373E-06 alpha_mix =  0.700 |ddv_scf|^2 =  1.753E-12

      iter #   4 total cpu time : 10262.8 secs   av.it.:  15.7
      thresh= 1.324E-07 alpha_mix =  0.700 |ddv_scf|^2 =  5.697E-14

      iter #   5 total cpu time : 10346.7 secs   av.it.:  15.8
      thresh= 2.387E-08 alpha_mix =  0.700 |ddv_scf|^2 =  2.716E-15

     End of self-consistent calculation

     Convergence has been achieved 


     Representation #  14 mode #  14

     Self-consistent Calculation

      iter #   1 total cpu time : 10413.2 secs   av.it.:   4.1
      thresh= 1.000E-02 alpha_mix =  0.700 |ddv_scf|^2 =  9.787E-09

      iter #   2 total cpu time : 10496.5 secs   av.it.:  15.4
      thresh= 9.893E-06 alpha_mix =  0.700 |ddv_scf|^2 =  1.238E-09

      iter #   3 total cpu time : 10579.0 secs   av.it.:  15.0
      thresh= 3.518E-06 alpha_mix =  0.700 |ddv_scf|^2 =  1.079E-11

      iter #   4 total cpu time : 10665.3 secs   av.it.:  15.8
      thresh= 3.285E-07 alpha_mix =  0.700 |ddv_scf|^2 =  1.549E-12

      iter #   5 total cpu time : 10752.9 secs   av.it.:  15.6
      thresh= 1.245E-07 alpha_mix =  0.700 |ddv_scf|^2 =  7.204E-14

      iter #   6 total cpu time : 10840.3 secs   av.it.:  15.4
      thresh= 2.684E-08 alpha_mix =  0.700 |ddv_scf|^2 =  1.789E-16

     End of self-consistent calculation

     Convergence has been achieved 


     Representation #  15 mode #  15

     Self-consistent Calculation

      iter #   1 total cpu time : 10920.7 secs   av.it.:   3.0
      thresh= 1.000E-02 alpha_mix =  0.700 |ddv_scf|^2 =  1.546E-09

      iter #   2 total cpu time : 11010.9 secs   av.it.:  15.9
      thresh= 3.933E-06 alpha_mix =  0.700 |ddv_scf|^2 =  2.902E-10

      iter #   3 total cpu time : 11099.8 secs   av.it.:  15.6
      thresh= 1.704E-06 alpha_mix =  0.700 |ddv_scf|^2 =  3.528E-12

      iter #   4 total cpu time : 11190.5 secs   av.it.:  15.9
      thresh= 1.878E-07 alpha_mix =  0.700 |ddv_scf|^2 =  1.338E-13

      iter #   5 total cpu time : 11281.3 secs   av.it.:  15.9
      thresh= 3.658E-08 alpha_mix =  0.700 |ddv_scf|^2 =  5.143E-15

     End of self-consistent calculation

     Convergence has been achieved 


     Representation #  16 mode #  16

     Self-consistent Calculation

      iter #   1 total cpu time : 11345.4 secs   av.it.:   3.0
      thresh= 1.000E-02 alpha_mix =  0.700 |ddv_scf|^2 =  1.638E-09

      iter #   2 total cpu time : 11436.6 secs   av.it.:  15.9
      thresh= 4.047E-06 alpha_mix =  0.700 |ddv_scf|^2 =  5.353E-10

      iter #   3 total cpu time : 11521.6 secs   av.it.:  15.0
      thresh= 2.314E-06 alpha_mix =  0.700 |ddv_scf|^2 =  1.727E-12

      iter #   4 total cpu time : 11609.3 secs   av.it.:  15.9
      thresh= 1.314E-07 alpha_mix =  0.700 |ddv_scf|^2 =  4.590E-14

      iter #   5 total cpu time : 11694.0 secs   av.it.:  15.7
      thresh= 2.142E-08 alpha_mix =  0.700 |ddv_scf|^2 =  2.974E-15

     End of self-consistent calculation

     Convergence has been achieved 


     Representation #  17 mode #  17

     Self-consistent Calculation

      iter #   1 total cpu time : 11762.3 secs   av.it.:   4.9
      thresh= 1.000E-02 alpha_mix =  0.700 |ddv_scf|^2 =  1.366E-08

      iter #   2 total cpu time : 11851.0 secs   av.it.:  15.9
      thresh= 1.169E-05 alpha_mix =  0.700 |ddv_scf|^2 =  5.702E-09

      iter #   3 total cpu time : 11936.8 secs   av.it.:  14.9
      thresh= 7.551E-06 alpha_mix =  0.700 |ddv_scf|^2 =  9.824E-11

      iter #   4 total cpu time : 12025.5 secs   av.it.:  15.1
      thresh= 9.911E-07 alpha_mix =  0.700 |ddv_scf|^2 =  6.507E-12

      iter #   5 total cpu time : 12114.7 secs   av.it.:  15.2
      thresh= 2.551E-07 alpha_mix =  0.700 |ddv_scf|^2 =  5.064E-13

      iter #   6 total cpu time : 12203.1 secs   av.it.:  15.1
      thresh= 7.116E-08 alpha_mix =  0.700 |ddv_scf|^2 =  1.460E-14

      iter #   7 total cpu time : 12294.7 secs   av.it.:  15.9
      thresh= 1.208E-08 alpha_mix =  0.700 |ddv_scf|^2 =  2.803E-15

     End of self-consistent calculation

     Convergence has been achieved 


     Representation #  18 mode #  18

     Self-consistent Calculation

      iter #   1 total cpu time : 12376.1 secs   av.it.:   3.1
      thresh= 1.000E-02 alpha_mix =  0.700 |ddv_scf|^2 =  3.763E-09

      iter #   2 total cpu time : 12466.2 secs   av.it.:  15.5
      thresh= 6.134E-06 alpha_mix =  0.700 |ddv_scf|^2 =  2.180E-09

      iter #   3 total cpu time : 12552.3 secs   av.it.:  14.8
      thresh= 4.669E-06 alpha_mix =  0.700 |ddv_scf|^2 =  4.113E-12

      iter #   4 total cpu time : 12643.1 secs   av.it.:  15.9
      thresh= 2.028E-07 alpha_mix =  0.700 |ddv_scf|^2 =  8.118E-13

      iter #   5 total cpu time : 12731.2 secs   av.it.:  15.0
      thresh= 9.010E-08 alpha_mix =  0.700 |ddv_scf|^2 =  7.041E-14

      iter #   6 total cpu time : 12818.7 secs   av.it.:  14.9
      thresh= 2.654E-08 alpha_mix =  0.700 |ddv_scf|^2 =  3.331E-15

     End of self-consistent calculation

     Convergence has been achieved 


     Representation #  19 mode #  19

     Self-consistent Calculation

      iter #   1 total cpu time : 12881.6 secs   av.it.:   3.0
      thresh= 1.000E-02 alpha_mix =  0.700 |ddv_scf|^2 =  9.937E-10

      iter #   2 total cpu time : 12973.0 secs   av.it.:  15.9
      thresh= 3.152E-06 alpha_mix =  0.700 |ddv_scf|^2 =  2.153E-10

      iter #   3 total cpu time : 13062.7 secs   av.it.:  15.7
      thresh= 1.467E-06 alpha_mix =  0.700 |ddv_scf|^2 =  1.158E-11

      iter #   4 total cpu time : 13150.7 secs   av.it.:  15.0
      thresh= 3.403E-07 alpha_mix =  0.700 |ddv_scf|^2 =  5.779E-13

      iter #   5 total cpu time : 13239.8 secs   av.it.:  15.6
      thresh= 7.602E-08 alpha_mix =  0.700 |ddv_scf|^2 =  1.118E-14

      iter #   6 total cpu time : 13329.9 secs   av.it.:  15.9
      thresh= 1.057E-08 alpha_mix =  0.700 |ddv_scf|^2 =  1.841E-15

     End of self-consistent calculation

     Convergence has been achieved 


     Representation #  20 mode #  20

     Self-consistent Calculation

      iter #   1 total cpu time : 13395.0 secs   av.it.:   3.9
      thresh= 1.000E-02 alpha_mix =  0.700 |ddv_scf|^2 =  6.362E-09

      iter #   2 total cpu time : 13483.8 secs   av.it.:  15.3
      thresh= 7.976E-06 alpha_mix =  0.700 |ddv_scf|^2 =  3.972E-09

      iter #   3 total cpu time : 13568.6 secs   av.it.:  14.7
      thresh= 6.302E-06 alpha_mix =  0.700 |ddv_scf|^2 =  1.227E-11

      iter #   4 total cpu time : 13654.9 secs   av.it.:  14.9
      thresh= 3.503E-07 alpha_mix =  0.700 |ddv_scf|^2 =  1.027E-12

      iter #   5 total cpu time : 13743.5 secs   av.it.:  15.2
      thresh= 1.013E-07 alpha_mix =  0.700 |ddv_scf|^2 =  9.187E-14

      iter #   6 total cpu time : 13829.3 secs   av.it.:  14.9
      thresh= 3.031E-08 alpha_mix =  0.700 |ddv_scf|^2 =  7.094E-15

     End of self-consistent calculation

     Convergence has been achieved 


     Representation #  21 mode #  21

     Self-consistent Calculation

      iter #   1 total cpu time : 13892.9 secs   av.it.:   3.0
      thresh= 1.000E-02 alpha_mix =  0.700 |ddv_scf|^2 =  6.549E-09

      iter #   2 total cpu time : 13981.8 secs   av.it.:  15.4
      thresh= 8.092E-06 alpha_mix =  0.700 |ddv_scf|^2 =  4.456E-09

      iter #   3 total cpu time : 14067.0 secs   av.it.:  14.8
      thresh= 6.676E-06 alpha_mix =  0.700 |ddv_scf|^2 =  4.936E-12

      iter #   4 total cpu time : 14154.4 secs   av.it.:  15.9
      thresh= 2.222E-07 alpha_mix =  0.700 |ddv_scf|^2 =  9.556E-13

      iter #   5 total cpu time : 14237.6 secs   av.it.:  15.6
      thresh= 9.776E-08 alpha_mix =  0.700 |ddv_scf|^2 =  7.693E-14

      iter #   6 total cpu time : 14320.5 secs   av.it.:  15.2
      thresh= 2.774E-08 alpha_mix =  0.700 |ddv_scf|^2 =  2.950E-15

     End of self-consistent calculation

     Convergence has been achieved 


     Representation #  22 mode #  22

     Self-consistent Calculation

      iter #   1 total cpu time : 14397.8 secs   av.it.:   6.5
      thresh= 1.000E-02 alpha_mix =  0.700 |ddv_scf|^2 =  3.898E-08

      iter #   2 total cpu time : 14485.3 secs   av.it.:  15.3
      thresh= 1.974E-05 alpha_mix =  0.700 |ddv_scf|^2 =  6.191E-09

      iter #   3 total cpu time : 14571.5 secs   av.it.:  15.0
      thresh= 7.868E-06 alpha_mix =  0.700 |ddv_scf|^2 =  3.007E-11

      iter #   4 total cpu time : 14654.7 secs   av.it.:  15.0
      thresh= 5.484E-07 alpha_mix =  0.700 |ddv_scf|^2 =  2.216E-13

      iter #   5 total cpu time : 14739.3 secs   av.it.:  15.4
      thresh= 4.708E-08 alpha_mix =  0.700 |ddv_scf|^2 =  7.987E-15

     End of self-consistent calculation

     Convergence has been achieved 


     Representation #  23 mode #  23

     Self-consistent Calculation

      iter #   1 total cpu time : 14806.5 secs   av.it.:   3.0
      thresh= 1.000E-02 alpha_mix =  0.700 |ddv_scf|^2 =  4.420E-09

      iter #   2 total cpu time : 14891.6 secs   av.it.:  15.0
      thresh= 6.649E-06 alpha_mix =  0.700 |ddv_scf|^2 =  2.273E-09

      iter #   3 total cpu time : 14977.1 secs   av.it.:  14.7
      thresh= 4.767E-06 alpha_mix =  0.700 |ddv_scf|^2 =  1.714E-11

      iter #   4 total cpu time : 15065.6 secs   av.it.:  15.0
      thresh= 4.140E-07 alpha_mix =  0.700 |ddv_scf|^2 =  1.450E-12

      iter #   5 total cpu time : 15151.9 secs   av.it.:  14.9
      thresh= 1.204E-07 alpha_mix =  0.700 |ddv_scf|^2 =  2.635E-14

      iter #   6 total cpu time : 15241.7 secs   av.it.:  15.8
      thresh= 1.623E-08 alpha_mix =  0.700 |ddv_scf|^2 =  4.268E-15

     End of self-consistent calculation

     Convergence has been achieved 


     Representation #  24 mode #  24

     Self-consistent Calculation

      iter #   1 total cpu time : 15304.0 secs   av.it.:   3.0
      thresh= 1.000E-02 alpha_mix =  0.700 |ddv_scf|^2 =  7.037E-10

      iter #   2 total cpu time : 15393.8 secs   av.it.:  15.7
      thresh= 2.653E-06 alpha_mix =  0.700 |ddv_scf|^2 =  9.759E-11

      iter #   3 total cpu time : 15483.3 secs   av.it.:  15.6
      thresh= 9.879E-07 alpha_mix =  0.700 |ddv_scf|^2 =  9.732E-12

      iter #   4 total cpu time : 15570.3 secs   av.it.:  15.0
      thresh= 3.120E-07 alpha_mix =  0.700 |ddv_scf|^2 =  7.002E-13

      iter #   5 total cpu time : 15658.7 secs   av.it.:  15.0
      thresh= 8.368E-08 alpha_mix =  0.700 |ddv_scf|^2 =  1.214E-14

      iter #   6 total cpu time : 15747.7 secs   av.it.:  15.1
      thresh= 1.102E-08 alpha_mix =  0.700 |ddv_scf|^2 =  1.284E-15

     End of self-consistent calculation

     Convergence has been achieved 


     Representation #  25 mode #  25

     Self-consistent Calculation

      iter #   1 total cpu time : 15811.1 secs   av.it.:   3.1
      thresh= 1.000E-02 alpha_mix =  0.700 |ddv_scf|^2 =  5.223E-09

      iter #   2 total cpu time : 15895.8 secs   av.it.:  15.7
      thresh= 7.227E-06 alpha_mix =  0.700 |ddv_scf|^2 =  2.910E-09

      iter #   3 total cpu time : 15976.9 secs   av.it.:  14.9
      thresh= 5.395E-06 alpha_mix =  0.700 |ddv_scf|^2 =  1.920E-11

      iter #   4 total cpu time : 16061.4 secs   av.it.:  15.0
      thresh= 4.382E-07 alpha_mix =  0.700 |ddv_scf|^2 =  1.254E-12

      iter #   5 total cpu time : 16146.1 secs   av.it.:  15.3
      thresh= 1.120E-07 alpha_mix =  0.700 |ddv_scf|^2 =  5.633E-14

      iter #   6 total cpu time : 16232.1 secs   av.it.:  15.2
      thresh= 2.373E-08 alpha_mix =  0.700 |ddv_scf|^2 =  7.915E-15

     End of self-consistent calculation

     Convergence has been achieved 


     Representation #  26 mode #  26

     Self-consistent Calculation

      iter #   1 total cpu time : 16293.8 secs   av.it.:   3.0
      thresh= 1.000E-02 alpha_mix =  0.700 |ddv_scf|^2 =  4.224E-09

      iter #   2 total cpu time : 16377.9 secs   av.it.:  15.0
      thresh= 6.499E-06 alpha_mix =  0.700 |ddv_scf|^2 =  1.393E-09

      iter #   3 total cpu time : 16458.0 secs   av.it.:  14.7
      thresh= 3.733E-06 alpha_mix =  0.700 |ddv_scf|^2 =  1.094E-11

      iter #   4 total cpu time : 16542.2 secs   av.it.:  15.0
      thresh= 3.307E-07 alpha_mix =  0.700 |ddv_scf|^2 =  1.871E-12

      iter #   5 total cpu time : 16624.3 secs   av.it.:  14.9
      thresh= 1.368E-07 alpha_mix =  0.700 |ddv_scf|^2 =  1.860E-14

      iter #   6 total cpu time : 16707.8 secs   av.it.:  15.3
      thresh= 1.364E-08 alpha_mix =  0.700 |ddv_scf|^2 =  3.899E-15

     End of self-consistent calculation

     Convergence has been achieved 


     Representation #  27 mode #  27

     Self-consistent Calculation

      iter #   1 total cpu time : 16775.8 secs   av.it.:   5.0
      thresh= 1.000E-02 alpha_mix =  0.700 |ddv_scf|^2 =  4.942E-08

      iter #   2 total cpu time : 16856.4 secs   av.it.:  14.9
      thresh= 2.223E-05 alpha_mix =  0.700 |ddv_scf|^2 =  2.995E-08

      iter #   3 total cpu time : 16933.4 secs   av.it.:  14.2
      thresh= 1.731E-05 alpha_mix =  0.700 |ddv_scf|^2 =  1.592E-10

      iter #   4 total cpu time : 17015.4 secs   av.it.:  15.0
      thresh= 1.262E-06 alpha_mix =  0.700 |ddv_scf|^2 =  6.055E-12

      iter #   5 total cpu time : 17100.0 secs   av.it.:  15.0
      thresh= 2.461E-07 alpha_mix =  0.700 |ddv_scf|^2 =  1.286E-13

      iter #   6 total cpu time : 17187.2 secs   av.it.:  15.9
      thresh= 3.586E-08 alpha_mix =  0.700 |ddv_scf|^2 =  1.534E-14

      iter #   7 total cpu time : 17271.6 secs   av.it.:  15.2
      thresh= 1.239E-08 alpha_mix =  0.700 |ddv_scf|^2 =  8.198E-16

     End of self-consistent calculation

     Convergence has been achieved 


     Representation #  28 mode #  28

     Self-consistent Calculation

      iter #   1 total cpu time : 17352.3 secs   av.it.:   3.0
      thresh= 1.000E-02 alpha_mix =  0.700 |ddv_scf|^2 =  8.440E-09

      iter #   2 total cpu time : 17438.6 secs   av.it.:  15.0
      thresh= 9.187E-06 alpha_mix =  0.700 |ddv_scf|^2 =  6.179E-09

      iter #   3 total cpu time : 17520.4 secs   av.it.:  14.0
      thresh= 7.860E-06 alpha_mix =  0.700 |ddv_scf|^2 =  4.349E-12

      iter #   4 total cpu time : 17609.0 secs   av.it.:  15.6
      thresh= 2.085E-07 alpha_mix =  0.700 |ddv_scf|^2 =  1.014E-12

      iter #   5 total cpu time : 17694.7 secs   av.it.:  14.9
      thresh= 1.007E-07 alpha_mix =  0.700 |ddv_scf|^2 =  1.139E-14

      iter #   6 total cpu time : 17782.8 secs   av.it.:  15.2
      thresh= 1.067E-08 alpha_mix =  0.700 |ddv_scf|^2 =  1.020E-15

     End of self-consistent calculation

     Convergence has been achieved 


     Representation #  29 mode #  29

     Self-consistent Calculation

      iter #   1 total cpu time : 17847.5 secs   av.it.:   3.9
      thresh= 1.000E-02 alpha_mix =  0.700 |ddv_scf|^2 =  4.506E-09

      iter #   2 total cpu time : 17938.9 secs   av.it.:  15.8
      thresh= 6.713E-06 alpha_mix =  0.700 |ddv_scf|^2 =  2.800E-09

      iter #   3 total cpu time : 18025.7 secs   av.it.:  14.9
      thresh= 5.292E-06 alpha_mix =  0.700 |ddv_scf|^2 =  2.889E-12

      iter #   4 total cpu time : 18116.2 secs   av.it.:  15.8
      thresh= 1.700E-07 alpha_mix =  0.700 |ddv_scf|^2 =  8.385E-13

      iter #   5 total cpu time : 18204.1 secs   av.it.:  15.0
      thresh= 9.157E-08 alpha_mix =  0.700 |ddv_scf|^2 =  4.403E-14

      iter #   6 total cpu time : 18291.4 secs   av.it.:  15.0
      thresh= 2.098E-08 alpha_mix =  0.700 |ddv_scf|^2 =  4.254E-15

     End of self-consistent calculation

     Convergence has been achieved 


     Representation #  30 mode #  30

     Self-consistent Calculation

      iter #   1 total cpu time : 18361.8 secs   av.it.:   5.0
      thresh= 1.000E-02 alpha_mix =  0.700 |ddv_scf|^2 =  4.994E-08

      iter #   2 total cpu time : 18449.1 secs   av.it.:  15.0
      thresh= 2.235E-05 alpha_mix =  0.700 |ddv_scf|^2 =  3.722E-08

      iter #   3 total cpu time : 18531.8 secs   av.it.:  14.2
      thresh= 1.929E-05 alpha_mix =  0.700 |ddv_scf|^2 =  6.752E-11

      iter #   4 total cpu time : 18619.9 secs   av.it.:  15.4
      thresh= 8.217E-07 alpha_mix =  0.700 |ddv_scf|^2 =  6.935E-12

      iter #   5 total cpu time : 18705.0 secs   av.it.:  15.0
      thresh= 2.633E-07 alpha_mix =  0.700 |ddv_scf|^2 =  3.246E-13

      iter #   6 total cpu time : 18789.7 secs   av.it.:  15.7
      thresh= 5.697E-08 alpha_mix =  0.700 |ddv_scf|^2 =  2.263E-14

      iter #   7 total cpu time : 18876.2 secs   av.it.:  15.7
      thresh= 1.504E-08 alpha_mix =  0.700 |ddv_scf|^2 =  2.169E-15

     End of self-consistent calculation

     Convergence has been achieved 


     Representation #  31 mode #  31

     Self-consistent Calculation

      iter #   1 total cpu time : 18956.5 secs   av.it.:   3.0
      thresh= 1.000E-02 alpha_mix =  0.700 |ddv_scf|^2 =  6.491E-09

      iter #   2 total cpu time : 19043.5 secs   av.it.:  15.0
      thresh= 8.056E-06 alpha_mix =  0.700 |ddv_scf|^2 =  3.434E-09

      iter #   3 total cpu time : 19127.3 secs   av.it.:  14.6
      thresh= 5.860E-06 alpha_mix =  0.700 |ddv_scf|^2 =  1.345E-11

      iter #   4 total cpu time : 19214.7 secs   av.it.:  15.0
      thresh= 3.667E-07 alpha_mix =  0.700 |ddv_scf|^2 =  1.776E-12

      iter #   5 total cpu time : 19299.0 secs   av.it.:  14.7
      thresh= 1.333E-07 alpha_mix =  0.700 |ddv_scf|^2 =  5.166E-14

      iter #   6 total cpu time : 19386.3 secs   av.it.:  15.0
      thresh= 2.273E-08 alpha_mix =  0.700 |ddv_scf|^2 =  8.519E-15

     End of self-consistent calculation

     Convergence has been achieved 


     Representation #  32 mode #  32

     Self-consistent Calculation

      iter #   1 total cpu time : 19450.3 secs   av.it.:   3.4
      thresh= 1.000E-02 alpha_mix =  0.700 |ddv_scf|^2 =  2.627E-09

      iter #   2 total cpu time : 19540.8 secs   av.it.:  15.9
      thresh= 5.125E-06 alpha_mix =  0.700 |ddv_scf|^2 =  1.537E-09

      iter #   3 total cpu time : 19626.3 secs   av.it.:  14.9
      thresh= 3.921E-06 alpha_mix =  0.700 |ddv_scf|^2 =  6.750E-12

      iter #   4 total cpu time : 19712.7 secs   av.it.:  15.0
      thresh= 2.598E-07 alpha_mix =  0.700 |ddv_scf|^2 =  8.386E-13

      iter #   5 total cpu time : 19799.8 secs   av.it.:  15.0
      thresh= 9.158E-08 alpha_mix =  0.700 |ddv_scf|^2 =  6.638E-14

      iter #   6 total cpu time : 19886.7 secs   av.it.:  15.0
      thresh= 2.576E-08 alpha_mix =  0.700 |ddv_scf|^2 =  7.291E-15

     End of self-consistent calculation

     Convergence has been achieved 


     Representation #  33 mode #  33

     Self-consistent Calculation

      iter #   1 total cpu time : 19950.7 secs   av.it.:   3.4
      thresh= 1.000E-02 alpha_mix =  0.700 |ddv_scf|^2 =  4.377E-09

      iter #   2 total cpu time : 20039.1 secs   av.it.:  15.8
      thresh= 6.616E-06 alpha_mix =  0.700 |ddv_scf|^2 =  3.271E-09

      iter #   3 total cpu time : 20123.0 secs   av.it.:  14.9
      thresh= 5.719E-06 alpha_mix =  0.700 |ddv_scf|^2 =  5.723E-12

      iter #   4 total cpu time : 20213.4 secs   av.it.:  15.9
      thresh= 2.392E-07 alpha_mix =  0.700 |ddv_scf|^2 =  4.681E-13

      iter #   5 total cpu time : 20303.8 secs   av.it.:  15.9
      thresh= 6.842E-08 alpha_mix =  0.700 |ddv_scf|^2 =  1.791E-14

      iter #   6 total cpu time : 20391.0 secs   av.it.:  15.9
      thresh= 1.338E-08 alpha_mix =  0.700 |ddv_scf|^2 =  1.077E-15

     End of self-consistent calculation

     Convergence has been achieved 


     Representation #  34 mode #  34

     Self-consistent Calculation

      iter #   1 total cpu time : 20452.0 secs   av.it.:   3.0
      thresh= 1.000E-02 alpha_mix =  0.700 |ddv_scf|^2 =  7.819E-10

      iter #   2 total cpu time : 20538.1 secs   av.it.:  15.7
      thresh= 2.796E-06 alpha_mix =  0.700 |ddv_scf|^2 =  7.557E-11

      iter #   3 total cpu time : 20624.1 secs   av.it.:  15.6
      thresh= 8.693E-07 alpha_mix =  0.700 |ddv_scf|^2 =  5.633E-12

      iter #   4 total cpu time : 20709.0 secs   av.it.:  15.0
      thresh= 2.373E-07 alpha_mix =  0.700 |ddv_scf|^2 =  5.503E-13

      iter #   5 total cpu time : 20792.9 secs   av.it.:  15.0
      thresh= 7.418E-08 alpha_mix =  0.700 |ddv_scf|^2 =  1.837E-14

      iter #   6 total cpu time : 20879.1 secs   av.it.:  15.7
      thresh= 1.355E-08 alpha_mix =  0.700 |ddv_scf|^2 =  8.569E-16

     End of self-consistent calculation

     Convergence has been achieved 


     Representation #  35 mode #  35

     Self-consistent Calculation

      iter #   1 total cpu time : 20941.8 secs   av.it.:   3.0
      thresh= 1.000E-02 alpha_mix =  0.700 |ddv_scf|^2 =  2.810E-09

      iter #   2 total cpu time : 21027.8 secs   av.it.:  15.4
      thresh= 5.301E-06 alpha_mix =  0.700 |ddv_scf|^2 =  1.128E-09

      iter #   3 total cpu time : 21113.3 secs   av.it.:  14.9
      thresh= 3.359E-06 alpha_mix =  0.700 |ddv_scf|^2 =  1.936E-11

      iter #   4 total cpu time : 21201.0 secs   av.it.:  15.0
      thresh= 4.400E-07 alpha_mix =  0.700 |ddv_scf|^2 =  5.872E-13

      iter #   5 total cpu time : 21291.3 secs   av.it.:  15.7
      thresh= 7.663E-08 alpha_mix =  0.700 |ddv_scf|^2 =  3.530E-14

      iter #   6 total cpu time : 21380.6 secs   av.it.:  15.2
      thresh= 1.879E-08 alpha_mix =  0.700 |ddv_scf|^2 =  1.373E-15

     End of self-consistent calculation

     Convergence has been achieved 


     Representation #  36 mode #  36

     Self-consistent Calculation

      iter #   1 total cpu time : 21450.1 secs   av.it.:   4.2
      thresh= 1.000E-02 alpha_mix =  0.700 |ddv_scf|^2 =  5.466E-09

      iter #   2 total cpu time : 21541.7 secs   av.it.:  16.0
      thresh= 7.393E-06 alpha_mix =  0.700 |ddv_scf|^2 =  3.681E-10

      iter #   3 total cpu time : 21632.1 secs   av.it.:  15.9
      thresh= 1.919E-06 alpha_mix =  0.700 |ddv_scf|^2 =  1.370E-11

      iter #   4 total cpu time : 21721.5 secs   av.it.:  15.8
      thresh= 3.702E-07 alpha_mix =  0.700 |ddv_scf|^2 =  3.666E-12

      iter #   5 total cpu time : 21808.8 secs   av.it.:  15.0
      thresh= 1.915E-07 alpha_mix =  0.700 |ddv_scf|^2 =  1.137E-13

      iter #   6 total cpu time : 21897.5 secs   av.it.:  15.6
      thresh= 3.373E-08 alpha_mix =  0.700 |ddv_scf|^2 =  3.719E-15

     End of self-consistent calculation

     Convergence has been achieved 


     Representation #  37 mode #  37

     Self-consistent Calculation

      iter #   1 total cpu time : 21977.6 secs   av.it.:   3.0
      thresh= 1.000E-02 alpha_mix =  0.700 |ddv_scf|^2 =  8.714E-10

      iter #   2 total cpu time : 22068.5 secs   av.it.:  15.9
      thresh= 2.952E-06 alpha_mix =  0.700 |ddv_scf|^2 =  1.497E-10

      iter #   3 total cpu time : 22157.3 secs   av.it.:  15.4
      thresh= 1.224E-06 alpha_mix =  0.700 |ddv_scf|^2 =  1.941E-11

      iter #   4 total cpu time : 22240.7 secs   av.it.:  15.0
      thresh= 4.405E-07 alpha_mix =  0.700 |ddv_scf|^2 =  2.879E-13

      iter #   5 total cpu time : 22326.3 secs   av.it.:  15.4
      thresh= 5.365E-08 alpha_mix =  0.700 |ddv_scf|^2 =  6.407E-15

     End of self-consistent calculation

     Convergence has been achieved 


     Representation #  38 mode #  38

     Self-consistent Calculation

      iter #   1 total cpu time : 22388.2 secs   av.it.:   3.0
      thresh= 1.000E-02 alpha_mix =  0.700 |ddv_scf|^2 =  1.784E-09

      iter #   2 total cpu time : 22473.7 secs   av.it.:  15.7
      thresh= 4.224E-06 alpha_mix =  0.700 |ddv_scf|^2 =  3.981E-10

      iter #   3 total cpu time : 22561.5 secs   av.it.:  15.0
      thresh= 1.995E-06 alpha_mix =  0.700 |ddv_scf|^2 =  1.499E-11

      iter #   4 total cpu time : 22649.5 secs   av.it.:  15.0
      thresh= 3.872E-07 alpha_mix =  0.700 |ddv_scf|^2 =  9.152E-13

      iter #   5 total cpu time : 22738.7 secs   av.it.:  15.2
      thresh= 9.567E-08 alpha_mix =  0.700 |ddv_scf|^2 =  2.422E-14

      iter #   6 total cpu time : 22828.3 secs   av.it.:  15.6
      thresh= 1.556E-08 alpha_mix =  0.700 |ddv_scf|^2 =  9.980E-16

     End of self-consistent calculation

     Convergence has been achieved 


     Representation #  39 mode #  39

     Self-consistent Calculation

      iter #   1 total cpu time : 22906.5 secs   av.it.:   6.1
      thresh= 1.000E-02 alpha_mix =  0.700 |ddv_scf|^2 =  2.141E-07

      iter #   2 total cpu time : 22994.7 secs   av.it.:  15.0
      thresh= 4.627E-05 alpha_mix =  0.700 |ddv_scf|^2 =  1.074E-07

      iter #   3 total cpu time : 23080.3 secs   av.it.:  14.7
      thresh= 3.278E-05 alpha_mix =  0.700 |ddv_scf|^2 =  5.249E-10

      iter #   4 total cpu time : 23169.0 secs   av.it.:  15.2
      thresh= 2.291E-06 alpha_mix =  0.700 |ddv_scf|^2 =  1.166E-11

      iter #   5 total cpu time : 23258.8 secs   av.it.:  15.6
      thresh= 3.415E-07 alpha_mix =  0.700 |ddv_scf|^2 =  5.199E-13

      iter #   6 total cpu time : 23344.2 secs   av.it.:  14.7
      thresh= 7.211E-08 alpha_mix =  0.700 |ddv_scf|^2 =  3.994E-14

      iter #   7 total cpu time : 23428.6 secs   av.it.:  14.6
      thresh= 1.998E-08 alpha_mix =  0.700 |ddv_scf|^2 =  4.648E-15

     End of self-consistent calculation

     Convergence has been achieved 


     Representation #  40 mode #  40

     Self-consistent Calculation

      iter #   1 total cpu time : 23502.8 secs   av.it.:   4.6
      thresh= 1.000E-02 alpha_mix =  0.700 |ddv_scf|^2 =  8.489E-09

      iter #   2 total cpu time : 23590.1 secs   av.it.:  15.9
      thresh= 9.214E-06 alpha_mix =  0.700 |ddv_scf|^2 =  1.888E-09

      iter #   3 total cpu time : 23676.1 secs   av.it.:  15.2
      thresh= 4.345E-06 alpha_mix =  0.700 |ddv_scf|^2 =  5.102E-11

      iter #   4 total cpu time : 23763.4 secs   av.it.:  15.0
      thresh= 7.143E-07 alpha_mix =  0.700 |ddv_scf|^2 =  5.950E-12

      iter #   5 total cpu time : 23851.2 secs   av.it.:  15.1
      thresh= 2.439E-07 alpha_mix =  0.700 |ddv_scf|^2 =  3.523E-13

      iter #   6 total cpu time : 23939.1 secs   av.it.:  15.6
      thresh= 5.935E-08 alpha_mix =  0.700 |ddv_scf|^2 =  1.185E-15

     End of self-consistent calculation

     Convergence has been achieved 


     Representation #  41 mode #  41

     Self-consistent Calculation

      iter #   1 total cpu time : 24021.4 secs   av.it.:   3.9
      thresh= 1.000E-02 alpha_mix =  0.700 |ddv_scf|^2 =  6.104E-09

      iter #   2 total cpu time : 24110.4 secs   av.it.:  15.5
      thresh= 7.813E-06 alpha_mix =  0.700 |ddv_scf|^2 =  4.102E-09

      iter #   3 total cpu time : 24195.7 secs   av.it.:  14.8
      thresh= 6.404E-06 alpha_mix =  0.700 |ddv_scf|^2 =  4.477E-12

      iter #   4 total cpu time : 24285.6 secs   av.it.:  15.9
      thresh= 2.116E-07 alpha_mix =  0.700 |ddv_scf|^2 =  7.327E-13

      iter #   5 total cpu time : 24374.2 secs   av.it.:  15.3
      thresh= 8.560E-08 alpha_mix =  0.700 |ddv_scf|^2 =  5.115E-14

      iter #   6 total cpu time : 24458.0 secs   av.it.:  14.9
      thresh= 2.262E-08 alpha_mix =  0.700 |ddv_scf|^2 =  7.082E-16

     End of self-consistent calculation

     Convergence has been achieved 


     Representation #  42 mode #  42

     Self-consistent Calculation

      iter #   1 total cpu time : 24518.2 secs   av.it.:   3.0
      thresh= 1.000E-02 alpha_mix =  0.700 |ddv_scf|^2 =  3.679E-10

      iter #   2 total cpu time : 24603.7 secs   av.it.:  15.7
      thresh= 1.918E-06 alpha_mix =  0.700 |ddv_scf|^2 =  4.461E-11

      iter #   3 total cpu time : 24689.3 secs   av.it.:  15.6
      thresh= 6.679E-07 alpha_mix =  0.700 |ddv_scf|^2 =  1.907E-11

      iter #   4 total cpu time : 24771.4 secs   av.it.:  14.9
      thresh= 4.367E-07 alpha_mix =  0.700 |ddv_scf|^2 =  1.782E-13

      iter #   5 total cpu time : 24857.4 secs   av.it.:  15.6
      thresh= 4.221E-08 alpha_mix =  0.700 |ddv_scf|^2 =  1.155E-14

      iter #   6 total cpu time : 24943.1 secs   av.it.:  15.4
      thresh= 1.075E-08 alpha_mix =  0.700 |ddv_scf|^2 =  4.954E-16

     End of self-consistent calculation

     Convergence has been achieved 


     Representation #  43 mode #  43

     Self-consistent Calculation

      iter #   1 total cpu time : 25011.2 secs   av.it.:   4.2
      thresh= 1.000E-02 alpha_mix =  0.700 |ddv_scf|^2 =  5.601E-09

      iter #   2 total cpu time : 25101.2 secs   av.it.:  15.9
      thresh= 7.484E-06 alpha_mix =  0.700 |ddv_scf|^2 =  4.099E-10

      iter #   3 total cpu time : 25189.4 secs   av.it.:  15.9
      thresh= 2.025E-06 alpha_mix =  0.700 |ddv_scf|^2 =  2.581E-11

      iter #   4 total cpu time : 25273.4 secs   av.it.:  15.1
      thresh= 5.081E-07 alpha_mix =  0.700 |ddv_scf|^2 =  4.547E-12

      iter #   5 total cpu time : 25356.4 secs   av.it.:  15.0
      thresh= 2.132E-07 alpha_mix =  0.700 |ddv_scf|^2 =  1.523E-14

      iter #   6 total cpu time : 25441.8 secs   av.it.:  15.9
      thresh= 1.234E-08 alpha_mix =  0.700 |ddv_scf|^2 =  2.040E-16

     End of self-consistent calculation

     Convergence has been achieved 


     Representation #  44 mode #  44

     Self-consistent Calculation

      iter #   1 total cpu time : 25534.8 secs   av.it.:   6.3
      thresh= 1.000E-02 alpha_mix =  0.700 |ddv_scf|^2 =  7.448E-08

      iter #   2 total cpu time : 25622.4 secs   av.it.:  15.6
      thresh= 2.729E-05 alpha_mix =  0.700 |ddv_scf|^2 =  2.288E-08

      iter #   3 total cpu time : 25709.0 secs   av.it.:  14.9
      thresh= 1.512E-05 alpha_mix =  0.700 |ddv_scf|^2 =  3.106E-10

      iter #   4 total cpu time : 25795.0 secs   av.it.:  14.9
      thresh= 1.762E-06 alpha_mix =  0.700 |ddv_scf|^2 =  1.956E-11

      iter #   5 total cpu time : 25881.9 secs   av.it.:  15.0
      thresh= 4.422E-07 alpha_mix =  0.700 |ddv_scf|^2 =  1.752E-13

      iter #   6 total cpu time : 25970.6 secs   av.it.:  15.6
      thresh= 4.186E-08 alpha_mix =  0.700 |ddv_scf|^2 =  6.917E-15

     End of self-consistent calculation

     Convergence has been achieved 


     Representation #  45 mode #  45

     Self-consistent Calculation

      iter #   1 total cpu time : 26038.2 secs   av.it.:   3.0
      thresh= 1.000E-02 alpha_mix =  0.700 |ddv_scf|^2 =  1.136E-09

      iter #   2 total cpu time : 26129.0 secs   av.it.:  15.9
      thresh= 3.371E-06 alpha_mix =  0.700 |ddv_scf|^2 =  2.793E-10

      iter #   3 total cpu time : 26216.8 secs   av.it.:  15.0
      thresh= 1.671E-06 alpha_mix =  0.700 |ddv_scf|^2 =  1.623E-11

      iter #   4 total cpu time : 26304.6 secs   av.it.:  15.0
      thresh= 4.029E-07 alpha_mix =  0.700 |ddv_scf|^2 =  4.423E-13

      iter #   5 total cpu time : 26393.6 secs   av.it.:  15.6
      thresh= 6.651E-08 alpha_mix =  0.700 |ddv_scf|^2 =  2.195E-14

      iter #   6 total cpu time : 26482.4 secs   av.it.:  15.4
      thresh= 1.481E-08 alpha_mix =  0.700 |ddv_scf|^2 =  1.193E-15

     End of self-consistent calculation

     Convergence has been achieved 


     Representation #  46 mode #  46

     Self-consistent Calculation

      iter #   1 total cpu time : 26546.3 secs   av.it.:   3.0
      thresh= 1.000E-02 alpha_mix =  0.700 |ddv_scf|^2 =  2.525E-09

      iter #   2 total cpu time : 26637.2 secs   av.it.:  15.9
      thresh= 5.025E-06 alpha_mix =  0.700 |ddv_scf|^2 =  1.924E-09

      iter #   3 total cpu time : 26721.4 secs   av.it.:  14.9
      thresh= 4.386E-06 alpha_mix =  0.700 |ddv_scf|^2 =  5.180E-12

      iter #   4 total cpu time : 26808.4 secs   av.it.:  15.9
      thresh= 2.276E-07 alpha_mix =  0.700 |ddv_scf|^2 =  5.222E-13

      iter #   5 total cpu time : 26896.3 secs   av.it.:  15.9
      thresh= 7.226E-08 alpha_mix =  0.700 |ddv_scf|^2 =  8.211E-15

     End of self-consistent calculation

     Convergence has been achieved 


     Representation #  47 mode #  47

     Self-consistent Calculation

      iter #   1 total cpu time : 26959.0 secs   av.it.:   3.8
      thresh= 1.000E-02 alpha_mix =  0.700 |ddv_scf|^2 =  2.827E-09

      iter #   2 total cpu time : 27043.8 secs   av.it.:  15.8
      thresh= 5.317E-06 alpha_mix =  0.700 |ddv_scf|^2 =  2.211E-09

      iter #   3 total cpu time : 27124.5 secs   av.it.:  14.9
      thresh= 4.703E-06 alpha_mix =  0.700 |ddv_scf|^2 =  6.343E-12

      iter #   4 total cpu time : 27212.9 secs   av.it.:  15.9
      thresh= 2.518E-07 alpha_mix =  0.700 |ddv_scf|^2 =  5.179E-13

      iter #   5 total cpu time : 27300.1 secs   av.it.:  15.8
      thresh= 7.197E-08 alpha_mix =  0.700 |ddv_scf|^2 =  1.047E-14

      iter #   6 total cpu time : 27387.5 secs   av.it.:  15.9
      thresh= 1.023E-08 alpha_mix =  0.700 |ddv_scf|^2 =  9.307E-16

     End of self-consistent calculation

     Convergence has been achieved 


     Representation #  48 mode #  48

     Self-consistent Calculation

      iter #   1 total cpu time : 27448.7 secs   av.it.:   3.0
      thresh= 1.000E-02 alpha_mix =  0.700 |ddv_scf|^2 =  3.787E-10

      iter #   2 total cpu time : 27536.9 secs   av.it.:  15.9
      thresh= 1.946E-06 alpha_mix =  0.700 |ddv_scf|^2 =  1.980E-11

      iter #   3 total cpu time : 27626.3 secs   av.it.:  15.9
      thresh= 4.450E-07 alpha_mix =  0.700 |ddv_scf|^2 =  4.315E-12

      iter #   4 total cpu time : 27713.6 secs   av.it.:  15.4
      thresh= 2.077E-07 alpha_mix =  0.700 |ddv_scf|^2 =  3.640E-13

      iter #   5 total cpu time : 27799.8 secs   av.it.:  15.0
      thresh= 6.033E-08 alpha_mix =  0.700 |ddv_scf|^2 =  1.861E-14

      iter #   6 total cpu time : 27885.6 secs   av.it.:  15.0
      thresh= 1.364E-08 alpha_mix =  0.700 |ddv_scf|^2 =  5.362E-16

     End of self-consistent calculation

     Convergence has been achieved 


     Representation #  49 mode #  49

     Self-consistent Calculation

      iter #   1 total cpu time : 27948.3 secs   av.it.:   3.0
      thresh= 1.000E-02 alpha_mix =  0.700 |ddv_scf|^2 =  1.211E-09

      iter #   2 total cpu time : 28038.3 secs   av.it.:  15.9
      thresh= 3.480E-06 alpha_mix =  0.700 |ddv_scf|^2 =  6.629E-10

      iter #   3 total cpu time : 28121.6 secs   av.it.:  14.9
      thresh= 2.575E-06 alpha_mix =  0.700 |ddv_scf|^2 =  7.664E-12

      iter #   4 total cpu time : 28204.7 secs   av.it.:  15.3
      thresh= 2.768E-07 alpha_mix =  0.700 |ddv_scf|^2 =  4.908E-13

      iter #   5 total cpu time : 28289.4 secs   av.it.:  15.9
      thresh= 7.006E-08 alpha_mix =  0.700 |ddv_scf|^2 =  1.660E-14

      iter #   6 total cpu time : 28375.1 secs   av.it.:  15.9
      thresh= 1.288E-08 alpha_mix =  0.700 |ddv_scf|^2 =  7.544E-16

     End of self-consistent calculation

     Convergence has been achieved 


     Representation #  50 mode #  50

     Self-consistent Calculation

      iter #   1 total cpu time : 28442.9 secs   av.it.:   4.6
      thresh= 1.000E-02 alpha_mix =  0.700 |ddv_scf|^2 =  9.856E-09

      iter #   2 total cpu time : 28534.0 secs   av.it.:  15.9
      thresh= 9.928E-06 alpha_mix =  0.700 |ddv_scf|^2 =  3.917E-09

      iter #   3 total cpu time : 28620.5 secs   av.it.:  14.9
      thresh= 6.259E-06 alpha_mix =  0.700 |ddv_scf|^2 =  1.271E-10

      iter #   4 total cpu time : 28708.8 secs   av.it.:  15.0
      thresh= 1.128E-06 alpha_mix =  0.700 |ddv_scf|^2 =  2.664E-12

      iter #   5 total cpu time : 28798.8 secs   av.it.:  15.6
      thresh= 1.632E-07 alpha_mix =  0.700 |ddv_scf|^2 =  4.351E-13

      iter #   6 total cpu time : 28887.2 secs   av.it.:  15.1
      thresh= 6.596E-08 alpha_mix =  0.700 |ddv_scf|^2 =  1.737E-15

     End of self-consistent calculation

     Convergence has been achieved 


     Representation #  51 mode #  51

     Self-consistent Calculation

      iter #   1 total cpu time : 28968.5 secs   av.it.:   3.1
      thresh= 1.000E-02 alpha_mix =  0.700 |ddv_scf|^2 =  2.995E-09

      iter #   2 total cpu time : 29059.0 secs   av.it.:  15.9
      thresh= 5.472E-06 alpha_mix =  0.700 |ddv_scf|^2 =  2.325E-09

      iter #   3 total cpu time : 29144.5 secs   av.it.:  14.9
      thresh= 4.822E-06 alpha_mix =  0.700 |ddv_scf|^2 =  4.901E-12

      iter #   4 total cpu time : 29236.6 secs   av.it.:  15.9
      thresh= 2.214E-07 alpha_mix =  0.700 |ddv_scf|^2 =  9.962E-13

      iter #   5 total cpu time : 29326.5 secs   av.it.:  15.8
      thresh= 9.981E-08 alpha_mix =  0.700 |ddv_scf|^2 =  5.257E-14

      iter #   6 total cpu time : 29415.9 secs   av.it.:  15.4
      thresh= 2.293E-08 alpha_mix =  0.700 |ddv_scf|^2 =  2.638E-15

     End of self-consistent calculation

     Convergence has been achieved 


     Representation #  52 mode #  52

     Self-consistent Calculation

      iter #   1 total cpu time : 29479.7 secs   av.it.:   3.1
      thresh= 1.000E-02 alpha_mix =  0.700 |ddv_scf|^2 =  2.333E-09

      iter #   2 total cpu time : 29566.7 secs   av.it.:  15.9
      thresh= 4.830E-06 alpha_mix =  0.700 |ddv_scf|^2 =  1.229E-09

      iter #   3 total cpu time : 29649.3 secs   av.it.:  14.9
      thresh= 3.506E-06 alpha_mix =  0.700 |ddv_scf|^2 =  1.253E-11

      iter #   4 total cpu time : 29733.2 secs   av.it.:  15.0
      thresh= 3.540E-07 alpha_mix =  0.700 |ddv_scf|^2 =  1.191E-12

      iter #   5 total cpu time : 29817.8 secs   av.it.:  15.2
      thresh= 1.091E-07 alpha_mix =  0.700 |ddv_scf|^2 =  5.248E-14

      iter #   6 total cpu time : 29902.3 secs   av.it.:  15.1
      thresh= 2.291E-08 alpha_mix =  0.700 |ddv_scf|^2 =  1.443E-15

     End of self-consistent calculation

     Convergence has been achieved 


     Representation #  53 mode #  53

     Self-consistent Calculation

      iter #   1 total cpu time : 29964.1 secs   av.it.:   3.0
      thresh= 1.000E-02 alpha_mix =  0.700 |ddv_scf|^2 =  1.345E-09

      iter #   2 total cpu time : 30051.3 secs   av.it.:  15.9
      thresh= 3.667E-06 alpha_mix =  0.700 |ddv_scf|^2 =  5.904E-10

      iter #   3 total cpu time : 30134.4 secs   av.it.:  15.0
      thresh= 2.430E-06 alpha_mix =  0.700 |ddv_scf|^2 =  8.518E-12

      iter #   4 total cpu time : 30219.3 secs   av.it.:  15.4
      thresh= 2.919E-07 alpha_mix =  0.700 |ddv_scf|^2 =  1.111E-12

      iter #   5 total cpu time : 30302.7 secs   av.it.:  15.0
      thresh= 1.054E-07 alpha_mix =  0.700 |ddv_scf|^2 =  6.048E-14

      iter #   6 total cpu time : 30387.4 secs   av.it.:  15.3
      thresh= 2.459E-08 alpha_mix =  0.700 |ddv_scf|^2 =  1.740E-15

     End of self-consistent calculation

     Convergence has been achieved 


     Representation #  54 mode #  54

     Self-consistent Calculation

      iter #   1 total cpu time : 30449.7 secs   av.it.:   3.0
      thresh= 1.000E-02 alpha_mix =  0.700 |ddv_scf|^2 =  3.989E-09

      iter #   2 total cpu time : 30534.3 secs   av.it.:  15.3
      thresh= 6.316E-06 alpha_mix =  0.700 |ddv_scf|^2 =  2.752E-09

      iter #   3 total cpu time : 30614.4 secs   av.it.:  14.6
      thresh= 5.246E-06 alpha_mix =  0.700 |ddv_scf|^2 =  6.260E-12

      iter #   4 total cpu time : 30699.8 secs   av.it.:  15.7
      thresh= 2.502E-07 alpha_mix =  0.700 |ddv_scf|^2 =  7.384E-13

      iter #   5 total cpu time : 30784.7 secs   av.it.:  15.2
      thresh= 8.593E-08 alpha_mix =  0.700 |ddv_scf|^2 =  2.418E-14

      iter #   6 total cpu time : 30872.1 secs   av.it.:  15.9
      thresh= 1.555E-08 alpha_mix =  0.700 |ddv_scf|^2 =  2.101E-15

     End of self-consistent calculation

     Convergence has been achieved 


     Representation #  55 mode #  55

     Self-consistent Calculation

      iter #   1 total cpu time : 30934.2 secs   av.it.:   3.0
      thresh= 1.000E-02 alpha_mix =  0.700 |ddv_scf|^2 =  6.576E-10

      iter #   2 total cpu time : 31021.1 secs   av.it.:  16.0
      thresh= 2.564E-06 alpha_mix =  0.700 |ddv_scf|^2 =  1.494E-10

      iter #   3 total cpu time : 31106.1 secs   av.it.:  15.5
      thresh= 1.222E-06 alpha_mix =  0.700 |ddv_scf|^2 =  7.041E-12

      iter #   4 total cpu time : 31191.3 secs   av.it.:  15.4
      thresh= 2.653E-07 alpha_mix =  0.700 |ddv_scf|^2 =  1.622E-13

      iter #   5 total cpu time : 31277.6 secs   av.it.:  15.9
      thresh= 4.027E-08 alpha_mix =  0.700 |ddv_scf|^2 =  2.747E-14

      iter #   6 total cpu time : 31360.9 secs   av.it.:  15.0
      thresh= 1.657E-08 alpha_mix =  0.700 |ddv_scf|^2 =  1.767E-15

     End of self-consistent calculation

     Convergence has been achieved 


     Representation #  56 mode #  56

     Self-consistent Calculation

      iter #   1 total cpu time : 31439.1 secs   av.it.:   6.7
      thresh= 1.000E-02 alpha_mix =  0.700 |ddv_scf|^2 =  2.143E-07

      iter #   2 total cpu time : 31525.0 secs   av.it.:  15.2
      thresh= 4.629E-05 alpha_mix =  0.700 |ddv_scf|^2 =  1.683E-07

      iter #   3 total cpu time : 31608.6 secs   av.it.:  14.5
      thresh= 4.102E-05 alpha_mix =  0.700 |ddv_scf|^2 =  1.380E-10

      iter #   4 total cpu time : 31698.4 secs   av.it.:  15.7
      thresh= 1.175E-06 alpha_mix =  0.700 |ddv_scf|^2 =  2.178E-11

      iter #   5 total cpu time : 31787.4 secs   av.it.:  15.5
      thresh= 4.666E-07 alpha_mix =  0.700 |ddv_scf|^2 =  1.113E-12

      iter #   6 total cpu time : 31876.7 secs   av.it.:  15.5
      thresh= 1.055E-07 alpha_mix =  0.700 |ddv_scf|^2 =  2.719E-14

      iter #   7 total cpu time : 31966.3 secs   av.it.:  15.6
      thresh= 1.649E-08 alpha_mix =  0.700 |ddv_scf|^2 =  2.167E-15

     End of self-consistent calculation

     Convergence has been achieved 


     Representation #  57 mode #  57

     Self-consistent Calculation

      iter #   1 total cpu time : 32041.6 secs   av.it.:   5.0
      thresh= 1.000E-02 alpha_mix =  0.700 |ddv_scf|^2 =  3.454E-08

      iter #   2 total cpu time : 32130.2 secs   av.it.:  15.3
      thresh= 1.859E-05 alpha_mix =  0.700 |ddv_scf|^2 =  2.379E-08

      iter #   3 total cpu time : 32214.5 secs   av.it.:  14.6
      thresh= 1.542E-05 alpha_mix =  0.700 |ddv_scf|^2 =  5.535E-11

      iter #   4 total cpu time : 32304.7 secs   av.it.:  15.9
      thresh= 7.440E-07 alpha_mix =  0.700 |ddv_scf|^2 =  5.309E-12

      iter #   5 total cpu time : 32394.1 secs   av.it.:  15.6
      thresh= 2.304E-07 alpha_mix =  0.700 |ddv_scf|^2 =  8.637E-13

      iter #   6 total cpu time : 32483.2 secs   av.it.:  15.4
      thresh= 9.294E-08 alpha_mix =  0.700 |ddv_scf|^2 =  6.032E-15

     End of self-consistent calculation

     Convergence has been achieved 


     Representation #  58 mode #  58

     Self-consistent Calculation

      iter #   1 total cpu time : 32562.1 secs   av.it.:   3.0
      thresh= 1.000E-02 alpha_mix =  0.700 |ddv_scf|^2 =  8.687E-10

      iter #   2 total cpu time : 32652.4 secs   av.it.:  15.7
      thresh= 2.947E-06 alpha_mix =  0.700 |ddv_scf|^2 =  3.751E-10

      iter #   3 total cpu time : 32737.8 secs   av.it.:  14.9
      thresh= 1.937E-06 alpha_mix =  0.700 |ddv_scf|^2 =  1.165E-11

      iter #   4 total cpu time : 32824.5 secs   av.it.:  15.0
      thresh= 3.413E-07 alpha_mix =  0.700 |ddv_scf|^2 =  3.787E-13

      iter #   5 total cpu time : 32913.5 secs   av.it.:  15.5
      thresh= 6.154E-08 alpha_mix =  0.700 |ddv_scf|^2 =  2.011E-14

      iter #   6 total cpu time : 32999.2 secs   av.it.:  15.5
      thresh= 1.418E-08 alpha_mix =  0.700 |ddv_scf|^2 =  1.640E-15

     End of self-consistent calculation

     Convergence has been achieved 


     Representation #  59 mode #  59

     Self-consistent Calculation

      iter #   1 total cpu time : 33062.3 secs   av.it.:   3.0
      thresh= 1.000E-02 alpha_mix =  0.700 |ddv_scf|^2 =  1.555E-09

      iter #   2 total cpu time : 33153.4 secs   av.it.:  15.9
      thresh= 3.943E-06 alpha_mix =  0.700 |ddv_scf|^2 =  7.263E-10

      iter #   3 total cpu time : 33240.6 secs   av.it.:  14.9
      thresh= 2.695E-06 alpha_mix =  0.700 |ddv_scf|^2 =  1.161E-11

      iter #   4 total cpu time : 33329.5 secs   av.it.:  15.0
      thresh= 3.407E-07 alpha_mix =  0.700 |ddv_scf|^2 =  1.116E-12

      iter #   5 total cpu time : 33418.2 secs   av.it.:  15.1
      thresh= 1.056E-07 alpha_mix =  0.700 |ddv_scf|^2 =  4.765E-14

      iter #   6 total cpu time : 33507.4 secs   av.it.:  15.2
      thresh= 2.183E-08 alpha_mix =  0.700 |ddv_scf|^2 =  1.672E-15

     End of self-consistent calculation

     Convergence has been achieved 


     Representation #  60 mode #  60

     Self-consistent Calculation

      iter #   1 total cpu time : 33570.3 secs   av.it.:   3.0
      thresh= 1.000E-02 alpha_mix =  0.700 |ddv_scf|^2 =  2.182E-09

      iter #   2 total cpu time : 33658.7 secs   av.it.:  15.9
      thresh= 4.671E-06 alpha_mix =  0.700 |ddv_scf|^2 =  1.216E-09

      iter #   3 total cpu time : 33745.6 secs   av.it.:  14.9
      thresh= 3.487E-06 alpha_mix =  0.700 |ddv_scf|^2 =  5.466E-12

      iter #   4 total cpu time : 33835.3 secs   av.it.:  15.8
      thresh= 2.338E-07 alpha_mix =  0.700 |ddv_scf|^2 =  1.619E-12

      iter #   5 total cpu time : 33923.4 secs   av.it.:  15.0
      thresh= 1.273E-07 alpha_mix =  0.700 |ddv_scf|^2 =  4.666E-14

      iter #   6 total cpu time : 34014.1 secs   av.it.:  15.7
      thresh= 2.160E-08 alpha_mix =  0.700 |ddv_scf|^2 =  2.225E-15

     End of self-consistent calculation

     Convergence has been achieved 


     Representation #  61 mode #  61

     Self-consistent Calculation

      iter #   1 total cpu time : 34078.9 secs   av.it.:   3.2
      thresh= 1.000E-02 alpha_mix =  0.700 |ddv_scf|^2 =  5.526E-09

      iter #   2 total cpu time : 34168.2 secs   av.it.:  15.2
      thresh= 7.434E-06 alpha_mix =  0.700 |ddv_scf|^2 =  3.471E-09

      iter #   3 total cpu time : 34254.0 secs   av.it.:  14.9
      thresh= 5.891E-06 alpha_mix =  0.700 |ddv_scf|^2 =  1.358E-11

      iter #   4 total cpu time : 34342.1 secs   av.it.:  15.0
      thresh= 3.685E-07 alpha_mix =  0.700 |ddv_scf|^2 =  1.192E-12

      iter #   5 total cpu time : 34431.4 secs   av.it.:  15.3
      thresh= 1.092E-07 alpha_mix =  0.700 |ddv_scf|^2 =  7.794E-14

      iter #   6 total cpu time : 34519.1 secs   av.it.:  15.0
      thresh= 2.792E-08 alpha_mix =  0.700 |ddv_scf|^2 =  1.552E-15

     End of self-consistent calculation

     Convergence has been achieved 


     Representation #  62 mode #  62

     Self-consistent Calculation

      iter #   1 total cpu time : 34588.4 secs   av.it.:   4.4
[...]

      iter #   4 total cpu time :******** secs   av.it.:  15.0
      thresh= 6.532E-07 alpha_mix =  0.700 |ddv_scf|^2 =  3.535E-12

      iter #   5 total cpu time :******** secs   av.it.:  15.0
      thresh= 1.880E-07 alpha_mix =  0.700 |ddv_scf|^2 =  1.779E-13

      iter #   6 total cpu time :******** secs   av.it.:  15.3
      thresh= 4.218E-08 alpha_mix =  0.700 |ddv_scf|^2 =  1.463E-14

      iter #   7 total cpu time :******** secs   av.it.:  15.8
      thresh= 1.210E-08 alpha_mix =  0.700 |ddv_scf|^2 =  1.381E-15

     End of self-consistent calculation

     Convergence has been achieved 


     Representation #  64 mode #  64

     Self-consistent Calculation

      iter #   1 total cpu time :******** secs   av.it.:   3.2
      thresh= 1.000E-02 alpha_mix =  0.700 |ddv_scf|^2 =  4.705E-09

      iter #   2 total cpu time :******** secs   av.it.:  16.0
      thresh= 6.859E-06 alpha_mix =  0.700 |ddv_scf|^2 =  3.502E-09

      iter #   3 total cpu time :******** secs   av.it.:  15.0
      thresh= 5.918E-06 alpha_mix =  0.700 |ddv_scf|^2 =  3.438E-11

      iter #   4 total cpu time :******** secs   av.it.:  15.0
      thresh= 5.864E-07 alpha_mix =  0.700 |ddv_scf|^2 =  4.607E-12

      iter #   5 total cpu time :******** secs   av.it.:  15.0
      thresh= 2.146E-07 alpha_mix =  0.700 |ddv_scf|^2 =  1.768E-13

      iter #   6 total cpu time :******** secs   av.it.:  15.4
      thresh= 4.205E-08 alpha_mix =  0.700 |ddv_scf|^2 =  1.743E-14

      iter #   7 total cpu time :******** secs   av.it.:  15.4
      thresh= 1.320E-08 alpha_mix =  0.700 |ddv_scf|^2 =  2.158E-15

     End of self-consistent calculation

     Convergence has been achieved 


     Representation #  65 mode #  65

     Self-consistent Calculation

      iter #   1 total cpu time :******** secs   av.it.:   3.0
      thresh= 1.000E-02 alpha_mix =  0.700 |ddv_scf|^2 =  4.499E-09

      iter #   2 total cpu time :******** secs   av.it.:  15.1
      thresh= 6.707E-06 alpha_mix =  0.700 |ddv_scf|^2 =  4.333E-09

      iter #   3 total cpu time :******** secs   av.it.:  14.0
      thresh= 6.582E-06 alpha_mix =  0.700 |ddv_scf|^2 =  3.094E-11

      iter #   4 total cpu time :******** secs   av.it.:  15.0
      thresh= 5.563E-07 alpha_mix =  0.700 |ddv_scf|^2 =  2.219E-12

      iter #   5 total cpu time :******** secs   av.it.:  15.4
      thresh= 1.490E-07 alpha_mix =  0.700 |ddv_scf|^2 =  1.442E-13

      iter #   6 total cpu time :******** secs   av.it.:  15.0
      thresh= 3.798E-08 alpha_mix =  0.700 |ddv_scf|^2 =  1.072E-14

      iter #   7 total cpu time :******** secs   av.it.:  15.4
      thresh= 1.035E-08 alpha_mix =  0.700 |ddv_scf|^2 =  8.476E-16

     End of self-consistent calculation

     Convergence has been achieved 


     Representation #  66 mode #  66

     Self-consistent Calculation

      iter #   1 total cpu time :******** secs   av.it.:   3.0
      thresh= 1.000E-02 alpha_mix =  0.700 |ddv_scf|^2 =  3.797E-09

      iter #   2 total cpu time :******** secs   av.it.:  16.0
      thresh= 6.162E-06 alpha_mix =  0.700 |ddv_scf|^2 =  2.559E-09

      iter #   3 total cpu time :******** secs   av.it.:  15.0
      thresh= 5.059E-06 alpha_mix =  0.700 |ddv_scf|^2 =  5.188E-11

      iter #   4 total cpu time :******** secs   av.it.:  15.0
      thresh= 7.203E-07 alpha_mix =  0.700 |ddv_scf|^2 =  3.051E-12

      iter #   5 total cpu time :******** secs   av.it.:  15.0
      thresh= 1.747E-07 alpha_mix =  0.700 |ddv_scf|^2 =  1.114E-13

      iter #   6 total cpu time :******** secs   av.it.:  15.8
      thresh= 3.338E-08 alpha_mix =  0.700 |ddv_scf|^2 =  1.248E-14

      iter #   7 total cpu time :******** secs   av.it.:  15.3
      thresh= 1.117E-08 alpha_mix =  0.700 |ddv_scf|^2 =  1.044E-15

     End of self-consistent calculation

     Convergence has been achieved 

     Number of q in the star =    4
     List of q in the star:
          1   0.333333333   0.326476207   0.485222590
          2   0.333333333  -0.326476207  -0.485222590
          3  -0.333333333   0.326476207  -0.485222590
          4  -0.333333333  -0.326476207   0.485222590
     In addition there is the -q list: 
          1  -0.333333333  -0.326476207  -0.485222590
          2  -0.333333333   0.326476207   0.485222590
          3   0.333333333  -0.326476207   0.485222590
          4   0.333333333   0.326476207  -0.485222590

     Diagonalizing the dynamical matrix

     q = (    0.333333333   0.326476207   0.485222590 ) 

 **************************************************************************
     freq (    1) =       1.253838 [THz] =      41.823520 [cm-1]
     freq (    2) =       1.316313 [THz] =      43.907489 [cm-1]
     freq (    3) =       1.687779 [THz] =      56.298263 [cm-1]
     freq (    4) =       1.932925 [THz] =      64.475432 [cm-1]
     freq (    5) =       2.886551 [THz] =      96.284963 [cm-1]
     freq (    6) =       2.983852 [THz] =      99.530604 [cm-1]
     freq (    7) =       4.815603 [THz] =     160.631210 [cm-1]
     freq (    8) =       4.908154 [THz] =     163.718395 [cm-1]
     freq (    9) =       5.535063 [THz] =     184.629830 [cm-1]
     freq (   10) =       5.851450 [THz] =     195.183378 [cm-1]
     freq (   11) =       6.208426 [THz] =     207.090815 [cm-1]
     freq (   12) =       6.255911 [THz] =     208.674742 [cm-1]
     freq (   13) =       6.511310 [THz] =     217.193912 [cm-1]
     freq (   14) =       6.833328 [THz] =     227.935287 [cm-1]
     freq (   15) =       7.319809 [THz] =     244.162555 [cm-1]
     freq (   16) =       7.401838 [THz] =     246.898746 [cm-1]
     freq (   17) =       8.343102 [THz] =     278.295926 [cm-1]
     freq (   18) =       8.425707 [THz] =     281.051327 [cm-1]
     freq (   19) =       8.614221 [THz] =     287.339474 [cm-1]
     freq (   20) =       8.636803 [THz] =     288.092740 [cm-1]
     freq (   21) =       9.349843 [THz] =     311.877182 [cm-1]
     freq (   22) =       9.440973 [THz] =     314.916971 [cm-1]
     freq (   23) =       9.484482 [THz] =     316.368278 [cm-1]
     freq (   24) =       9.683547 [THz] =     323.008344 [cm-1]
     freq (   25) =      10.226645 [THz] =     341.124143 [cm-1]
     freq (   26) =      10.380168 [THz] =     346.245147 [cm-1]
     freq (   27) =      12.995701 [THz] =     433.489912 [cm-1]
     freq (   28) =      13.055099 [THz] =     435.471229 [cm-1]
     freq (   29) =      13.115010 [THz] =     437.469657 [cm-1]
     freq (   30) =      13.211706 [THz] =     440.695076 [cm-1]
     freq (   31) =      30.787682 [THz] =    1026.966524 [cm-1]
     freq (   32) =      30.798730 [THz] =    1027.335047 [cm-1]
     freq (   33) =      30.963854 [THz] =    1032.843004 [cm-1]
     freq (   34) =      30.986659 [THz] =    1033.603695 [cm-1]
     freq (   35) =      31.864218 [THz] =    1062.875918 [cm-1]
     freq (   36) =      31.886555 [THz] =    1063.620977 [cm-1]
     freq (   37) =      31.921748 [THz] =    1064.794897 [cm-1]
     freq (   38) =      31.974101 [THz] =    1066.541201 [cm-1]
     freq (   39) =      32.264496 [THz] =    1076.227734 [cm-1]
     freq (   40) =      32.290282 [THz] =    1077.087855 [cm-1]
     freq (   41) =      32.380829 [THz] =    1080.108191 [cm-1]
     freq (   42) =      32.437349 [THz] =    1081.993514 [cm-1]
     freq (   43) =      35.842455 [THz] =    1195.575601 [cm-1]
     freq (   44) =      35.871993 [THz] =    1196.560894 [cm-1]
     freq (   45) =      36.028195 [THz] =    1201.771216 [cm-1]
     freq (   46) =      36.058221 [THz] =    1202.772773 [cm-1]
     freq (   47) =      36.125387 [THz] =    1205.013215 [cm-1]
     freq (   48) =      36.144439 [THz] =    1205.648706 [cm-1]
     freq (   49) =      36.187758 [THz] =    1207.093663 [cm-1]
     freq (   50) =      36.206895 [THz] =    1207.732014 [cm-1]
     freq (   51) =      68.221383 [THz] =    2275.620397 [cm-1]
     freq (   52) =      68.241327 [THz] =    2276.285638 [cm-1]
     freq (   53) =      68.267098 [THz] =    2277.145277 [cm-1]
     freq (   54) =      68.306460 [THz] =    2278.458264 [cm-1]
     freq (   55) =      70.126525 [THz] =    2339.169088 [cm-1]
     freq (   56) =      70.134946 [THz] =    2339.449975 [cm-1]
     freq (   57) =      70.272274 [THz] =    2344.030733 [cm-1]
     freq (   58) =      70.275885 [THz] =    2344.151205 [cm-1]
     freq (   59) =      70.860334 [THz] =    2363.646323 [cm-1]
     freq (   60) =      70.869453 [THz] =    2363.950509 [cm-1]
     freq (   61) =      70.953793 [THz] =    2366.763774 [cm-1]
     freq (   62) =      70.981810 [THz] =    2367.698330 [cm-1]
     freq (   63) =      71.450199 [THz] =    2383.322094 [cm-1]
     freq (   64) =      71.465579 [THz] =    2383.835120 [cm-1]
     freq (   65) =      71.555711 [THz] =    2386.841593 [cm-1]
     freq (   66) =      71.595718 [THz] =    2388.176092 [cm-1]
 **************************************************************************

     Mode symmetry, C_1 (1)     point group:

     freq (   1-   1) =         41.8  [cm-1]   --> A                  
     freq (   2-   2) =         43.9  [cm-1]   --> A                  
     freq (   3-   3) =         56.3  [cm-1]   --> A                  
     freq (   4-   4) =         64.5  [cm-1]   --> A                  
     freq (   5-   5) =         96.3  [cm-1]   --> A                  
     freq (   6-   6) =         99.5  [cm-1]   --> A                  
     freq (   7-   7) =        160.6  [cm-1]   --> A                  
     freq (   8-   8) =        163.7  [cm-1]   --> A                  
     freq (   9-   9) =        184.6  [cm-1]   --> A                  
     freq (  10-  10) =        195.2  [cm-1]   --> A                  
     freq (  11-  11) =        207.1  [cm-1]   --> A                  
     freq (  12-  12) =        208.7  [cm-1]   --> A                  
     freq (  13-  13) =        217.2  [cm-1]   --> A                  
     freq (  14-  14) =        227.9  [cm-1]   --> A                  
     freq (  15-  15) =        244.2  [cm-1]   --> A                  
     freq (  16-  16) =        246.9  [cm-1]   --> A                  
     freq (  17-  17) =        278.3  [cm-1]   --> A                  
     freq (  18-  18) =        281.1  [cm-1]   --> A                  
     freq (  19-  19) =        287.3  [cm-1]   --> A                  
     freq (  20-  20) =        288.1  [cm-1]   --> A                  
     freq (  21-  21) =        311.9  [cm-1]   --> A                  
     freq (  22-  22) =        314.9  [cm-1]   --> A                  
     freq (  23-  23) =        316.4  [cm-1]   --> A                  
     freq (  24-  24) =        323.0  [cm-1]   --> A                  
     freq (  25-  25) =        341.1  [cm-1]   --> A                  
     freq (  26-  26) =        346.2  [cm-1]   --> A                  
     freq (  27-  27) =        433.5  [cm-1]   --> A                  
     freq (  28-  28) =        435.5  [cm-1]   --> A                  
     freq (  29-  29) =        437.5  [cm-1]   --> A                  
     freq (  30-  30) =        440.7  [cm-1]   --> A                  
     freq (  31-  31) =       1027.0  [cm-1]   --> A                  
     freq (  32-  32) =       1027.3  [cm-1]   --> A                  
     freq (  33-  33) =       1032.8  [cm-1]   --> A                  
     freq (  34-  34) =       1033.6  [cm-1]   --> A                  
     freq (  35-  35) =       1062.9  [cm-1]   --> A                  
     freq (  36-  36) =       1063.6  [cm-1]   --> A                  
     freq (  37-  37) =       1064.8  [cm-1]   --> A                  
     freq (  38-  38) =       1066.5  [cm-1]   --> A                  
     freq (  39-  39) =       1076.2  [cm-1]   --> A                  
     freq (  40-  40) =       1077.1  [cm-1]   --> A                  
     freq (  41-  41) =       1080.1  [cm-1]   --> A                  
     freq (  42-  42) =       1082.0  [cm-1]   --> A                  
     freq (  43-  43) =       1195.6  [cm-1]   --> A                  
     freq (  44-  44) =       1196.6  [cm-1]   --> A                  
     freq (  45-  45) =       1201.8  [cm-1]   --> A                  
     freq (  46-  46) =       1202.8  [cm-1]   --> A                  
     freq (  47-  47) =       1205.0  [cm-1]   --> A                  
     freq (  48-  48) =       1205.6  [cm-1]   --> A                  
     freq (  49-  49) =       1207.1  [cm-1]   --> A                  
     freq (  50-  50) =       1207.7  [cm-1]   --> A                  
     freq (  51-  51) =       2275.6  [cm-1]   --> A                  
     freq (  52-  52) =       2276.3  [cm-1]   --> A                  
     freq (  53-  53) =       2277.1  [cm-1]   --> A                  
     freq (  54-  54) =       2278.5  [cm-1]   --> A                  
     freq (  55-  55) =       2339.2  [cm-1]   --> A                  
     freq (  56-  56) =       2339.4  [cm-1]   --> A                  
     freq (  57-  57) =       2344.0  [cm-1]   --> A                  
     freq (  58-  58) =       2344.2  [cm-1]   --> A                  
     freq (  59-  59) =       2363.6  [cm-1]   --> A                  
     freq (  60-  60) =       2364.0  [cm-1]   --> A                  
     freq (  61-  61) =       2366.8  [cm-1]   --> A                  
     freq (  62-  62) =       2367.7  [cm-1]   --> A                  
     freq (  63-  63) =       2383.3  [cm-1]   --> A                  
     freq (  64-  64) =       2383.8  [cm-1]   --> A                  
     freq (  65-  65) =       2386.8  [cm-1]   --> A                  
     freq (  66-  66) =       2388.2  [cm-1]   --> A                  

     init_run     :      8.54s CPU      8.80s WALL (       7 calls)
     electrons    :   5195.38s CPU   5231.79s WALL (       7 calls)

     Called by init_run:
     wfcinit      :      0.00s CPU      0.01s WALL (       7 calls)
     potinit      :      1.02s CPU      1.11s WALL (       7 calls)
     hinit0       :      0.83s CPU      0.86s WALL (       7 calls)

     Called by electrons:
     c_bands      :   5195.37s CPU   5231.79s WALL (       7 calls)
     v_of_rho     :      0.95s CPU      1.00s WALL (       8 calls)
     newd         :      1.48s CPU      1.50s WALL (       8 calls)

     Called by c_bands:
     init_us_2    :   2353.18s CPU   2554.98s WALL (  443434 calls)
     cegterg      :   4758.97s CPU   4789.53s WALL (    2773 calls)

     Called by *egterg:
     cdiaghg      :    143.20s CPU    143.93s WALL (   31978 calls)
     h_psi        : 544937.88s CPU 549382.97s WALL ( 5604120 calls)
     s_psi        : 211835.97s CPU 212703.99s WALL (11514182 calls)
     g_psi        :     12.90s CPU     12.97s WALL (   30588 calls)

     Called by h_psi:
     h_psi:calbec :  89645.53s CPU  90090.53s WALL ( 5604120 calls)
     vloc_psi     : 349939.98s CPU 353505.48s WALL ( 5604120 calls)
     add_vuspsi   : 102703.63s CPU 103132.31s WALL ( 5604120 calls)

     General routines
     calbec       : 197219.56s CPU 198165.81s WALL (12188671 calls)
     fft          :    811.21s CPU    874.25s WALL (  101791 calls)
     ffts         :   1519.77s CPU   1555.57s WALL (   92746 calls)
     fftw         : 355915.25s CPU 359793.80s WALL (******** calls)
     interpolate  :     67.73s CPU     77.87s WALL (    7936 calls)
     davcio       :    825.72s CPU   1286.14s WALL ( 1901506 calls)

     Parallel routines

     PHONON       :  11d15h33m CPU  11d18h 0m WALL

     INITIALIZATION: 
     phq_setup    :      2.72s CPU      3.40s WALL (       8 calls)
     phq_init     :   4337.33s CPU   4374.78s WALL (       8 calls)

     phq_init     :   4337.33s CPU   4374.78s WALL (       8 calls)
     set_drhoc    :      0.11s CPU      0.11s WALL (      24 calls)
     init_vloc    :      0.09s CPU      0.10s WALL (       8 calls)
     init_us_1    :      0.17s CPU      0.23s WALL (       8 calls)
     init_us_2    :   2353.18s CPU   2554.98s WALL (  443434 calls)
     newd         :      1.48s CPU      1.50s WALL (       8 calls)
     dvanqq       :    174.42s CPU    176.43s WALL (       8 calls)
     drho         :   3897.50s CPU   3931.45s WALL (       8 calls)
     drhous       :   3558.87s CPU   3587.16s WALL (       8 calls)
     nldyntot     :     84.11s CPU     84.23s WALL (       8 calls)

     DYNAMICAL MATRIX:
     dynmat0      :    205.66s CPU    206.47s WALL (       8 calls)
     dynmat_us    :    158.88s CPU    159.56s WALL (       8 calls)
     addusdynmat  :      0.01s CPU      0.06s WALL (       8 calls)
     d2ionq       :     44.37s CPU     44.41s WALL (       8 calls)
     dynmatcc     :      2.26s CPU      2.33s WALL (       8 calls)
     phqscf       : 992317.61s CPU *********s WALL (       8 calls)
     dynmatrix    :      0.78s CPU      0.91s WALL (       8 calls)

     phqscf       : 992317.61s CPU *********s WALL (       8 calls)
     solve_linter : 986233.81s CPU 994844.74s WALL (     528 calls)
     sth_kernel   : 959598.27s CPU 967296.08s WALL (    3681 calls)
     h_prec       :    590.47s CPU    595.18s WALL (  340234 calls)
     apply_dpot_b :  21393.82s CPU  21832.88s WALL (  292798 calls)
     ortho        :  15498.30s CPU  15605.15s WALL (  340612 calls)
     cgsolve      : 884159.16s CPU 890210.86s WALL (  340612 calls)
     incdrhoscf   :  34664.21s CPU  35237.62s WALL (  340612 calls)
                                        0.00s GPU  (  340612 calls)
     addusddens   :   1346.46s CPU   1363.88s WALL (    4202 calls)
     dv_of_drho   :    358.63s CPU    391.24s WALL (    3698 calls)
     mix_pot      :     40.67s CPU    106.95s WALL (    3681 calls)
     drhodv       :   4507.08s CPU   4551.62s WALL (     528 calls)
     psymdvscf    :   1687.45s CPU   1740.52s WALL (    1743 calls)
     newdq        :   1576.40s CPU   1586.15s WALL (    3681 calls)
     adddvscf     :   1039.27s CPU   1056.72s WALL (  292798 calls)
     drhodvus     :     23.12s CPU     45.24s WALL (     528 calls)

     dvqpsi_us    :  23559.17s CPU  23669.79s WALL (   49434 calls)
                                        0.00s GPU  (   49434 calls)
     dvqpsi_us_on :  18557.06s CPU  18601.31s WALL (   49434 calls)

     add_vuspsi   : 102703.63s CPU 103132.31s WALL ( 5604120 calls)
     addusdbec    :   7159.48s CPU   7195.47s WALL (  388264 calls)

     drhodvus     :     23.12s CPU     45.24s WALL (     528 calls)

      General routines
     calbec       : 197219.56s CPU 198165.81s WALL (12188671 calls)
     fft          :    811.21s CPU    874.25s WALL (  101791 calls)
     ffts         :   1519.77s CPU   1555.57s WALL (   92746 calls)
     fftw         : 355915.25s CPU 359793.80s WALL (******** calls)
     davcio       :    825.72s CPU   1286.14s WALL ( 1901506 calls)
     write_rec    :     69.09s CPU    650.85s WALL (    4209 calls)

      Additional routines
     ch_psi       : 873172.03s CPU 879075.52s WALL ( 5569369 calls)
     last         : 225299.27s CPU 226356.20s WALL ( 5569369 calls)
     Hesh         :   1696.60s CPU   1714.77s WALL ( 5569369 calls)
     ch_psi_all_k : 223512.98s CPU 224561.00s WALL ( 5569369 calls)
                                        0.00s GPU  ( 5569369 calls)
     ch_psi_calbe :  89235.42s CPU  89571.63s WALL ( 5569369 calls)
                                        0.00s GPU  ( 5569369 calls)
     h_psi_bgrp   : 544989.37s CPU 549423.93s WALL ( 5604120 calls)
     h_psi        : 544937.88s CPU 549382.97s WALL ( 5604120 calls)
     h_psi:pot    : 542420.60s CPU 546824.78s WALL ( 5604120 calls)
     h_psi:calbec :  89645.53s CPU  90090.53s WALL ( 5604120 calls)
     s_psi_bgrp   : 214338.77s CPU 215177.18s WALL (11514182 calls)
     s_psi        : 211835.97s CPU 212703.99s WALL (11514182 calls)


     PHONON       :  11d15h33m CPU  11d18h 0m WALL


   This run was terminated on:   6:22: 2  24Jul2024            

=------------------------------------------------------------------------------=
   JOB DONE.
=------------------------------------------------------------------------------=
