
     Program PWSCF v.7.3.1 starts on 12Jul2024 at 12:17:15 

     This program is part of the open-source Quantum ESPRESSO suite
     for quantum simulation of materials; please cite
         "P. Giannozzi et al., J. Phys.:Condens. Matter 21 395502 (2009);
         "P. Giannozzi et al., J. Phys.:Condens. Matter 29 465901 (2017);
         "P. Giannozzi et al., J. Chem. Phys. 152 154105 (2020);
          URL http://www.quantum-espresso.org", 
     in publications or presentations arising from this work. More details at
     http://www.quantum-espresso.org/quote

     Parallel version (MPI), running on    24 processors

     MPI processes distributed on     1 nodes
     94484 MiB available memory on the printing compute node when the environment starts

     Waiting for input...
     Reading input from standard input

     Current dimensions of program PWSCF are:
     Max number of different atomic species (ntypx) = 10
     Max number of k-points (npk) =  40000
     Max angular momentum in pseudopotentials (lmaxx) =  4

     R & G space division:  proc/nbgrp/npool/nimage =      24
     Subspace diagonalization in iterative solution of the eigenvalue problem:
     a serial algorithm will be used


     Parallelization info
     --------------------
     sticks:   dense  smooth     PW     G-vecs:    dense   smooth      PW
     Min         439     219     59                23067     8152    1145
     Max         441     221     60                23069     8154    1148
     Sum       10539    5271   1425               553621   195665   27525

     Using Slab Decomposition


     Title: 
     pre-ph                                                                     


     bravais-lattice index     =            8
     lattice parameter (alat)  =      12.7342  a.u.
     unit-cell volume          =    1448.3748 (a.u.)^3
     number of atoms/cell      =           22
     number of atomic types    =            3
     number of electrons       =        48.00
     number of Kohn-Sham states=           24
     kinetic-energy cutoff     =     100.0000  Ry
     charge density cutoff     =     800.0000  Ry
     scf convergence threshold =      1.0E-10
     mixing beta               =       0.7000
     number of iterations used =            8  plain     mixing
     Exchange-correlation= PBESOL
                           (   1   4  10   8   0   0   0)

     celldm(1)=  12.734210  celldm(2)=   1.021003  celldm(3)=   0.686970
     celldm(4)=   0.000000  celldm(5)=   0.000000  celldm(6)=   0.000000

     crystal axes: (cart. coord. in units of alat)
               a(1) = (   1.000000   0.000000   0.000000 )  
               a(2) = (   0.000000   1.021003   0.000000 )  
               a(3) = (   0.000000   0.000000   0.686970 )  

     reciprocal axes: (cart. coord. in units 2 pi/alat)
               b(1) = (  1.000000  0.000000  0.000000 )  
               b(2) = (  0.000000  0.979429  0.000000 )  
               b(3) = (  0.000000  0.000000  1.455668 )  


     PseudoPot. # 1 for B  read from file:
     /home/mehlhorn/pseudos/b_pbesol_v1.4.uspp.F.UPF
     MD5 check sum: 369b69bef2c3aeed4453bd8b804fd6a8
     Pseudo is Ultrasoft + core correction, Zval =  3.0
     Generated by new atomic code, or converted to UPF format
     Using radial grid of  781 points,  4 beta functions with: 
                l(1) =   0
                l(2) =   0
                l(3) =   1
                l(4) =   1
     Q(r) pseudized with  8 coefficients,  rinner =    1.100   1.100   1.100


     PseudoPot. # 2 for Ba read from file:
     /home/mehlhorn/pseudos/Ba.nc.z_10.oncvpsp4.dojo.v4-sp.upf
     MD5 check sum: c10ed334bb677c0554edec7181ce9143
     Pseudo is Norm-conserving + core correction, Zval = 10.0
     Generated using ONCVPSP code by D. R. Hamann
     Using radial grid of 1938 points,  8 beta functions with: 
                l(1) =   0
                l(2) =   0
                l(3) =   1
                l(4) =   1
                l(5) =   2
                l(6) =   2
                l(7) =   3
                l(8) =   3

     PseudoPot. # 3 for H  read from file:
     /home/mehlhorn/pseudos/H_ONCV_PBEsol-1.0.upf
     MD5 check sum: 398ef8f67c0a7342c05c87c5e19ea467
     Pseudo is Norm-conserving, Zval =  1.0
     Generated using ONCVPSP code by D. R. Hamann
     Using radial grid of 1180 points,  2 beta functions with: 
                l(1) =   0
                l(2) =   0

     atomic species   valence    mass     pseudopotential
     B                 3.00    10.81100     B ( 1.00)
     Ba               10.00   137.32700     Ba( 1.00)
     H                 1.00     1.00794     H ( 1.00)

      4 Sym. Ops. (no inversion) found ( 2 have fractional translation)



   Cartesian axes

     site n.     atom                  positions (alat units)
         1        Ba     tau(   1) = (   0.5000000   0.5105017   0.3434851  )
         2        Ba     tau(   2) = (   0.0000000   0.0000000   0.6869698  )
         3        B      tau(   3) = (   0.6125514   0.2459724   0.0000006  )
         4        B      tau(   4) = (   0.3874486   0.7750310   0.0000006  )
         5        B      tau(   5) = (   0.1125514   0.2645293   0.3434843  )
         6        B      tau(   6) = (   0.8874486   0.7564742   0.3434843  )
         7        H      tau(   7) = (   0.4372283   0.2975449  -0.0000137  )
         8        H      tau(   8) = (   0.5627717   0.7234585  -0.0000137  )
         9        H      tau(   9) = (   0.9372283   0.2129568   0.3434986  )
        10        H      tau(  10) = (   0.0627717   0.8080466   0.3434986  )
        11        H      tau(  11) = (   0.7214069   0.3941082   0.0000082  )
        12        H      tau(  12) = (   0.2785931   0.6268953   0.0000082  )
        13        H      tau(  13) = (   0.2214069   0.1163936   0.3434767  )
        14        H      tau(  14) = (   0.7785931   0.9046099   0.3434767  )
        15        H      tau(  15) = (   0.6426209   0.1476082   0.5362945  )
        16        H      tau(  16) = (   0.3573791   0.8733952   0.5362945  )
        17        H      tau(  17) = (   0.1426209   0.3628935   0.4941604  )
        18        H      tau(  18) = (   0.8573791   0.6581099   0.4941604  )
        19        H      tau(  19) = (   0.3573937   0.8733939   0.1506806  )
        20        H      tau(  20) = (   0.6426063   0.1476096   0.1506806  )
        21        H      tau(  21) = (   0.8573937   0.6581113   0.1928044  )
        22        H      tau(  22) = (   0.1426063   0.3628921   0.1928044  )

     number of k points=    27
                       cart. coord. in units 2pi/alat
        k(    1) = (   0.0000000   0.0000000   0.0000000), wk =   0.0160000
        k(    2) = (   0.0000000   0.0000000   0.2911336), wk =   0.0320000
        k(    3) = (   0.0000000   0.0000000   0.5822671), wk =   0.0320000
        k(    4) = (   0.0000000   0.1958857   0.0000000), wk =   0.0320000
        k(    5) = (   0.0000000   0.1958857   0.2911336), wk =   0.0640000
        k(    6) = (   0.0000000   0.1958857   0.5822671), wk =   0.0640000
        k(    7) = (   0.0000000   0.3917714   0.0000000), wk =   0.0320000
        k(    8) = (   0.0000000   0.3917714   0.2911336), wk =   0.0640000
        k(    9) = (   0.0000000   0.3917714   0.5822671), wk =   0.0640000
        k(   10) = (   0.2000000   0.0000000   0.0000000), wk =   0.0320000
        k(   11) = (   0.2000000   0.0000000   0.2911336), wk =   0.0640000
        k(   12) = (   0.2000000   0.0000000   0.5822671), wk =   0.0640000
        k(   13) = (   0.2000000   0.1958857   0.0000000), wk =   0.0640000
        k(   14) = (   0.2000000   0.1958857   0.2911336), wk =   0.1280000
        k(   15) = (   0.2000000   0.1958857   0.5822671), wk =   0.1280000
        k(   16) = (   0.2000000   0.3917714   0.0000000), wk =   0.0640000
        k(   17) = (   0.2000000   0.3917714   0.2911336), wk =   0.1280000
        k(   18) = (   0.2000000   0.3917714   0.5822671), wk =   0.1280000
        k(   19) = (   0.4000000   0.0000000   0.0000000), wk =   0.0320000
        k(   20) = (   0.4000000   0.0000000   0.2911336), wk =   0.0640000
        k(   21) = (   0.4000000   0.0000000   0.5822671), wk =   0.0640000
        k(   22) = (   0.4000000   0.1958857   0.0000000), wk =   0.0640000
        k(   23) = (   0.4000000   0.1958857   0.2911336), wk =   0.1280000
        k(   24) = (   0.4000000   0.1958857   0.5822671), wk =   0.1280000
        k(   25) = (   0.4000000   0.3917714   0.0000000), wk =   0.0640000
        k(   26) = (   0.4000000   0.3917714   0.2911336), wk =   0.1280000
        k(   27) = (   0.4000000   0.3917714   0.5822671), wk =   0.1280000

     Dense  grid:   553621 G-vectors     FFT dimensions: ( 120, 120,  80)

     Smooth grid:   195665 G-vectors     FFT dimensions: (  90,  90,  60)

     Estimated max dynamical RAM per process >      67.20 MB

     Estimated total dynamical RAM >       1.57 GB

     Initial potential from superposition of free atoms

     starting charge      47.9682, renormalised to      48.0000
     Starting wfcs are   42 randomized atomic wfcs

     total cpu time spent up to now is       11.6 secs

     Self-consistent Calculation

     iteration #  1     ecut=   100.00 Ry     beta= 0.70
     Davidson diagonalization with overlap
     ethr =  1.00E-02,  avg # of iterations =  2.0

     total cpu time spent up to now is       27.6 secs

     total energy              =    -155.92456416 Ry
     estimated scf accuracy    <       2.09937514 Ry

     iteration #  2     ecut=   100.00 Ry     beta= 0.70
     Davidson diagonalization with overlap
     ethr =  4.37E-03,  avg # of iterations =  2.0

     total cpu time spent up to now is       43.0 secs

     total energy              =    -156.40867670 Ry
     estimated scf accuracy    <       0.37333153 Ry

     iteration #  3     ecut=   100.00 Ry     beta= 0.70
     Davidson diagonalization with overlap
     ethr =  7.78E-04,  avg # of iterations =  2.0

     total cpu time spent up to now is       58.3 secs

     total energy              =    -156.47097600 Ry
     estimated scf accuracy    <       0.00489810 Ry

     iteration #  4     ecut=   100.00 Ry     beta= 0.70
     Davidson diagonalization with overlap
     ethr =  1.02E-05,  avg # of iterations =  5.1

     total cpu time spent up to now is       80.6 secs

     total energy              =    -156.47403457 Ry
     estimated scf accuracy    <       0.00172703 Ry

     iteration #  5     ecut=   100.00 Ry     beta= 0.70
     Davidson diagonalization with overlap
     ethr =  3.60E-06,  avg # of iterations =  3.3

     total cpu time spent up to now is       96.6 secs

     total energy              =    -156.47463302 Ry
     estimated scf accuracy    <       0.00017425 Ry

     iteration #  6     ecut=   100.00 Ry     beta= 0.70
     Davidson diagonalization with overlap
     ethr =  3.63E-07,  avg # of iterations =  4.1

     total cpu time spent up to now is      114.4 secs

     total energy              =    -156.47470013 Ry
     estimated scf accuracy    <       0.00000103 Ry

     iteration #  7     ecut=   100.00 Ry     beta= 0.70
     Davidson diagonalization with overlap
     ethr =  2.14E-09,  avg # of iterations = 10.3

     total cpu time spent up to now is      154.6 secs

     total energy              =    -156.47471083 Ry
     estimated scf accuracy    <       0.00000093 Ry

     iteration #  8     ecut=   100.00 Ry     beta= 0.70
     Davidson diagonalization with overlap
     ethr =  1.93E-09,  avg # of iterations =  2.0

     total cpu time spent up to now is      170.0 secs

     total energy              =    -156.47471102 Ry
     estimated scf accuracy    <       0.00000002 Ry

     iteration #  9     ecut=   100.00 Ry     beta= 0.70
     Davidson diagonalization with overlap
     ethr =  3.48E-11,  avg # of iterations =  5.9

     total cpu time spent up to now is      190.8 secs

     total energy              =    -156.47471104 Ry
     estimated scf accuracy    <          3.4E-09 Ry

     iteration # 10     ecut=   100.00 Ry     beta= 0.70
     Davidson diagonalization with overlap
     ethr =  6.99E-12,  avg # of iterations =  2.6

     total cpu time spent up to now is      208.0 secs

     total energy              =    -156.47471104 Ry
     estimated scf accuracy    <          2.4E-10 Ry

     iteration # 11     ecut=   100.00 Ry     beta= 0.70
     Davidson diagonalization with overlap
     ethr =  5.00E-13,  avg # of iterations =  5.2

     total cpu time spent up to now is      228.3 secs

     End of self-consistent calculation

          k = 0.0000 0.0000 0.0000 ( 24455 PWs)   bands (ev):

   -23.9198 -23.9109  -9.4696  -9.3845  -9.1857  -9.1454  -9.1126  -9.0494
    -6.0547  -5.1099  -4.4336  -4.2979  -1.7512  -0.8331  -0.7724  -0.4226
    -0.0647  -0.0601   0.0333   0.1093   0.3171   0.7042   0.7188   0.7599

          k = 0.0000 0.0000 0.2911 ( 24450 PWs)   bands (ev):

   -23.9143 -23.9071  -9.4042  -9.3373  -9.2984  -9.2651  -9.1714  -9.1434
    -5.7023  -4.9127  -4.5572  -4.4550  -1.4703  -1.0563  -0.6826  -0.5669
    -0.3590  -0.2538   0.0395   0.2298   0.5330   0.5721   0.5825   0.7613

          k = 0.0000 0.0000 0.5823 ( 24474 PWs)   bands (ev):

   -23.9045 -23.9018  -9.5615  -9.5552  -9.2690  -9.2425  -9.1685  -9.1586
    -5.0567  -4.7544  -4.7256  -4.7208  -1.2058  -1.2002  -1.0042  -0.9038
    -0.2857  -0.2131   0.1094   0.1965   0.4935   0.4982   0.6537   0.6554

          k = 0.0000 0.1959 0.0000 ( 24461 PWs)   bands (ev):

   -23.9189 -23.9118  -9.4507  -9.3642  -9.2213  -9.1692  -9.1064  -9.0553
    -5.9251  -5.0515  -4.6257  -4.3806  -1.5107  -0.9182  -0.8957  -0.1956
    -0.1204  -0.0907   0.0896   0.2471   0.3716   0.5080   0.6477   0.7031

          k = 0.0000 0.1959 0.2911 ( 24442 PWs)   bands (ev):

   -23.9136 -23.9078  -9.4032  -9.3236  -9.2897  -9.2801  -9.1719  -9.1599
    -5.6092  -4.8877  -4.6772  -4.5032  -1.3110  -1.0859  -0.8770  -0.3286
    -0.2527  -0.1880  -0.1388   0.3252   0.5054   0.5346   0.5743   0.6497

          k = 0.0000 0.1959 0.5823 ( 24479 PWs)   bands (ev):

   -23.9042 -23.9020  -9.5719  -9.5659  -9.2476  -9.2307  -9.1688  -9.1647
    -5.1510  -4.9984  -4.5973  -4.5049  -1.2432  -1.1757  -1.0564  -0.8116
    -0.1924  -0.0799   0.0724   0.2022   0.4060   0.4827   0.5542   0.6424

          k = 0.0000 0.3918 0.0000 ( 24462 PWs)   bands (ev):

   -23.9167 -23.9140  -9.3956  -9.3276  -9.2850  -9.2291  -9.0904  -9.0709
    -5.5798  -5.1367  -4.8013  -4.5853  -1.1339  -1.0573  -0.7560  -0.1919
    -0.1853  -0.1025   0.1496   0.3310   0.3767   0.4210   0.5116   0.6190

          k = 0.0000 0.3918 0.2911 ( 24456 PWs)   bands (ev):

   -23.9118 -23.9096  -9.3872  -9.3476  -9.2763  -9.2507  -9.1941  -9.1862
    -5.3583  -5.0313  -4.7427  -4.6200  -1.1117  -1.0838  -0.8650  -0.4699
    -0.1301  -0.0576   0.0455   0.2813   0.3368   0.3861   0.5981   0.5998

          k = 0.0000 0.3918 0.5823 ( 24457 PWs)   bands (ev):

   -23.9035 -23.9027  -9.5857  -9.5829  -9.2067  -9.2061  -9.1814  -9.1773
    -5.2322  -5.1819  -4.4374  -4.3912  -1.3048  -1.2865  -0.8332  -0.6737
    -0.0834  -0.0523   0.1000   0.1712   0.3103   0.3716   0.4985   0.6003

          k = 0.2000 0.0000 0.0000 ( 24413 PWs)   bands (ev):

   -23.9189 -23.9118  -9.4443  -9.3718  -9.2143  -9.1804  -9.1064  -9.0553
    -5.9305  -5.1254  -4.4610  -4.4067  -1.6226  -0.7184  -0.6473  -0.6229
    -0.0249   0.0312   0.0897   0.0903   0.2823   0.3949   0.7115   0.7224

          k = 0.2000 0.0000 0.2911 ( 24461 PWs)   bands (ev):

   -23.9136 -23.9078  -9.3859  -9.3596  -9.2869  -9.2660  -9.1892  -9.1476
    -5.5966  -4.9087  -4.5815  -4.5511  -1.3800  -1.0780  -0.7441  -0.5168
    -0.3491  -0.1701   0.0705   0.2715   0.3110   0.5331   0.6767   0.7185

          k = 0.2000 0.0000 0.5823 ( 24475 PWs)   bands (ev):

   -23.9042 -23.9020  -9.5747  -9.5691  -9.2549  -9.2253  -9.1748  -9.1593
    -5.0313  -4.8322  -4.7327  -4.6306  -1.5257  -1.3391  -0.9057  -0.6172
    -0.2439  -0.0064   0.1113   0.2330   0.3992   0.5166   0.5559   0.6774

          k = 0.2000 0.1959 0.0000 ( 24466 PWs)   bands (ev):

   -23.9182 -23.9124  -9.4556  -9.3310  -9.2802  -9.1549  -9.1014  -9.0600
    -5.8267  -5.0854  -4.6517  -4.4287  -1.4172  -0.9030  -0.7538  -0.3197
    -0.1407  -0.0852   0.2254   0.2469   0.3183   0.3733   0.5518   0.6813

          k = 0.2000 0.1959 0.2911 ( 24437 PWs)   bands (ev):

   -23.9130 -23.9083  -9.3962  -9.3454  -9.3084  -9.2494  -9.1926  -9.1486
    -5.5170  -4.8742  -4.7298  -4.5548  -1.2677  -1.0784  -0.8816  -0.3932
    -0.2740  -0.1281   0.0255   0.2671   0.3497   0.4938   0.6084   0.6912

          k = 0.2000 0.1959 0.5823 ( 24477 PWs)   bands (ev):

   -23.9040 -23.9022  -9.5839  -9.5612  -9.2655  -9.2015  -9.1826  -9.1626
    -5.1258  -4.9187  -4.6840  -4.4916  -1.4939  -1.3403  -0.8627  -0.6475
    -0.1938  -0.0010   0.1068   0.2579   0.3591   0.4820   0.5433   0.6606

          k = 0.2000 0.3918 0.0000 ( 24458 PWs)   bands (ev):

   -23.9164 -23.9142  -9.4404  -9.3804  -9.2420  -9.1765  -9.0883  -9.0725
    -5.5455  -5.1896  -4.7671  -4.5899  -1.0682  -1.0125  -0.7070  -0.2247
    -0.2023  -0.1593   0.0600   0.3750   0.3990   0.4470   0.4854   0.5265

          k = 0.2000 0.3918 0.2911 ( 24460 PWs)   bands (ev):

   -23.9115 -23.9098  -9.3956  -9.3681  -9.2913  -9.2506  -9.1848  -9.1591
    -5.3009  -5.0108  -4.7725  -4.6496  -1.1572  -1.0765  -0.8185  -0.4980
    -0.1115  -0.0459   0.0527   0.2826   0.2959   0.4122   0.5777   0.6104

          k = 0.2000 0.3918 0.5823 ( 24451 PWs)   bands (ev):

   -23.9034 -23.9027  -9.5817  -9.5681  -9.2504  -9.2139  -9.1760  -9.1659
    -5.1760  -5.0997  -4.5055  -4.4277  -1.4295  -1.3643  -0.7648  -0.6680
    -0.1586  -0.0275   0.1132   0.2500   0.3833   0.4522   0.5038   0.6052

          k = 0.4000 0.0000 0.0000 ( 24454 PWs)   bands (ev):

   -23.9167 -23.9139  -9.3770  -9.3324  -9.2852  -9.2566  -9.0904  -9.0709
    -5.6179  -5.2797  -4.5403  -4.5224  -1.3136  -0.9550  -0.5088  -0.2046
    -0.1112   0.0304   0.0538   0.0725   0.1887   0.2079   0.5213   0.6157

          k = 0.4000 0.0000 0.2911 ( 24457 PWs)   bands (ev):

   -23.9117 -23.9095  -9.3686  -9.3566  -9.3075  -9.2607  -9.1990  -9.1669
    -5.3245  -5.0183  -4.6722  -4.6386  -1.2182  -1.0194  -0.8979  -0.5200
    -0.2209  -0.0078   0.0013   0.0833   0.3583   0.4732   0.6607   0.6731

          k = 0.4000 0.0000 0.5823 ( 24482 PWs)   bands (ev):

   -23.9035 -23.9027  -9.5932  -9.5908  -9.2250  -9.2000  -9.1865  -9.1672
    -4.9829  -4.9219  -4.6647  -4.6064  -1.7051  -1.6296  -0.6077  -0.4213
    -0.1436  -0.0133   0.1076   0.2153   0.4342   0.5038   0.5806   0.6470

          k = 0.4000 0.1959 0.0000 ( 24415 PWs)   bands (ev):

   -23.9164 -23.9142  -9.4373  -9.3775  -9.2498  -9.1833  -9.0883  -9.0725
    -5.5725  -5.2726  -4.6289  -4.5304  -1.1918  -0.9660  -0.4698  -0.2792
    -0.1447  -0.1145  -0.0483   0.1735   0.2863   0.3453   0.4885   0.6042

          k = 0.4000 0.1959 0.2911 ( 24457 PWs)   bands (ev):

   -23.9115 -23.9097  -9.3903  -9.3698  -9.3038  -9.2592  -9.1820  -9.1549
    -5.2801  -5.0025  -4.7389  -4.6511  -1.1990  -1.0505  -0.8666  -0.5267
    -0.1960   0.0059   0.0557   0.1658   0.3270   0.4479   0.6015   0.6553

          k = 0.4000 0.1959 0.5823 ( 24489 PWs)   bands (ev):

   -23.9034 -23.9027  -9.5866  -9.5733  -9.2532  -9.2170  -9.1749  -9.1647
    -5.0289  -4.8883  -4.6969  -4.5533  -1.6518  -1.5891  -0.6310  -0.5297
    -0.1387  -0.0193   0.1111   0.2472   0.4354   0.4958   0.5912   0.6683

          k = 0.4000 0.3918 0.0000 ( 24420 PWs)   bands (ev):

   -23.9157 -23.9149  -9.4728  -9.4510  -9.1730  -9.1459  -9.0831  -9.0770
    -5.4499  -5.3157  -4.6880  -4.6193  -0.9594  -0.9339  -0.5623  -0.3433
    -0.2567  -0.2447   0.0450   0.2559   0.4261   0.4475   0.4703   0.4706

          k = 0.4000 0.3918 0.2911 ( 24454 PWs)   bands (ev):

   -23.9110 -23.9103  -9.4098  -9.4007  -9.2862  -9.2678  -9.1538  -9.1430
    -5.1624  -5.0296  -4.7891  -4.7213  -1.1562  -1.0914  -0.7979  -0.6509
    -0.0092   0.0950   0.1295   0.2473   0.2812   0.4285   0.4772   0.5543

          k = 0.4000 0.3918 0.5823 ( 24456 PWs)   bands (ev):

   -23.9032 -23.9029  -9.5634  -9.5535  -9.2772  -9.2576  -9.1656  -9.1639
    -5.0294  -4.9624  -4.6152  -4.5460  -1.5309  -1.5018  -0.7771  -0.7641
    -0.0211   0.1056   0.2064   0.2438   0.4008   0.4219   0.5980   0.6356

     highest occupied level (ev):     0.7613

!    total energy              =    -156.47471104 Ry
     estimated scf accuracy    <          7.4E-12 Ry

     The total energy is the sum of the following terms:
     one-electron contribution =     -23.01587133 Ry
     hartree contribution      =      25.82617505 Ry
     xc contribution           =     -49.12111333 Ry
     ewald contribution        =    -110.16390143 Ry

     convergence has been achieved in  11 iterations

     Writing all to output data dir ./pwscf.save/ :
     XML data file, charge density, pseudopotentials, collected wavefunctions

     init_run     :      9.67s CPU     11.20s WALL (       1 calls)
     electrons    :    215.00s CPU    216.81s WALL (       1 calls)

     Called by init_run:
     wfcinit      :      7.27s CPU      7.31s WALL (       1 calls)
     potinit      :      0.57s CPU      1.07s WALL (       1 calls)
     hinit0       :      0.98s CPU      1.90s WALL (       1 calls)

     Called by electrons:
     c_bands      :    191.20s CPU    192.55s WALL (      11 calls)
     sum_band     :     20.09s CPU     20.38s WALL (      11 calls)
     v_of_rho     :      1.52s CPU      1.59s WALL (      12 calls)
     newd         :      2.11s CPU      2.14s WALL (      12 calls)
     mix_rho      :      0.20s CPU      0.23s WALL (      11 calls)

     Called by c_bands:
     init_us_2    :      3.69s CPU      3.75s WALL (     621 calls)
     cegterg      :    172.33s CPU    173.60s WALL (     297 calls)

     Called by *egterg:
     cdiaghg      :      2.87s CPU      2.90s WALL (    1500 calls)
     h_psi        :    123.98s CPU    125.03s WALL (    1527 calls)
     s_psi        :     23.59s CPU     23.66s WALL (    1527 calls)
     g_psi        :      0.45s CPU      0.45s WALL (    1203 calls)

     Called by h_psi:
     h_psi:calbec :     20.70s CPU     20.80s WALL (    1527 calls)
     vloc_psi     :     79.24s CPU     80.13s WALL (    1527 calls)
     add_vuspsi   :     23.66s CPU     23.72s WALL (    1527 calls)

     General routines
     calbec       :     26.18s CPU     26.31s WALL (    1824 calls)
     fft          :      1.73s CPU      2.71s WALL (     154 calls)
     ffts         :      0.45s CPU      0.95s WALL (      23 calls)
     fftw         :     79.77s CPU     80.67s WALL (   60132 calls)
     interpolate  :      0.50s CPU      1.00s WALL (      12 calls)

     Parallel routines

     PWSCF        :   3m45.58s CPU   3m49.62s WALL


   This run was terminated on:  12:21: 5  12Jul2024            

=------------------------------------------------------------------------------=
   JOB DONE.
=------------------------------------------------------------------------------=
