
     Program Q2R v.7.3.1 starts on 24Jul2024 at  6:22: 6 

     This program is part of the open-source Quantum ESPRESSO suite
     for quantum simulation of materials; please cite
         "P. Giannozzi et al., J. Phys.:Condens. Matter 21 395502 (2009);
         "P. Giannozzi et al., J. Phys.:Condens. Matter 29 465901 (2017);
         "P. Giannozzi et al., J. Chem. Phys. 152 154105 (2020);
          URL http://www.quantum-espresso.org", 
     in publications or presentations arising from this work. More details at
     http://www.quantum-espresso.org/quote

     Parallel version (MPI), running on    24 processors

     MPI processes distributed on     1 nodes
     R & G space division:  proc/nbgrp/npool/nimage =      24
     71209 MiB available memory on the printing compute node when the environment starts


  reading grid info from file dyn0    

  reading force constants from file dyn1
 macroscopic fields = T
   3.08174   0.00000   0.00000
   0.00000   3.13867   0.00000
   0.00000   0.00000   3.28295
  na=            1
   2.48089  -0.05054   0.00000
   0.28457   2.50145   0.00000
   0.00000   0.00000   2.95912
  na=            2
   2.48089   0.05054   0.00000
  -0.28457   2.50145   0.00000
   0.00000   0.00000   2.95912
  na=            3
  -0.14483   0.03073  -0.00001
   0.17445  -0.03540   0.00002
   0.00002   0.00001  -0.19961
  na=            4
  -0.14483   0.03073   0.00001
   0.17445  -0.03540  -0.00002
  -0.00002  -0.00001  -0.19961
  na=            5
  -0.14483  -0.03073   0.00001
  -0.17445  -0.03540   0.00002
  -0.00002   0.00001  -0.19961
  na=            6
  -0.14483  -0.03073  -0.00001
  -0.17445  -0.03540  -0.00002
   0.00002  -0.00001  -0.19961
  na=            7
  -0.43244   0.13865  -0.00002
   0.14477  -0.24746   0.00003
  -0.00002   0.00003  -0.24880
  na=            8
  -0.43244   0.13865   0.00002
   0.14477  -0.24746  -0.00003
   0.00002  -0.00003  -0.24880
  na=            9
  -0.43244  -0.13865   0.00002
  -0.14477  -0.24746   0.00003
   0.00002   0.00003  -0.24880
  na=           10
  -0.43244  -0.13865  -0.00002
  -0.14477  -0.24746  -0.00003
  -0.00002  -0.00003  -0.24880
  na=           11
  -0.25979  -0.03764   0.00000
  -0.11177  -0.43144  -0.00002
  -0.00000  -0.00002  -0.24389
  na=           12
  -0.25979  -0.03764  -0.00000
  -0.11177  -0.43144   0.00002
   0.00000   0.00002  -0.24389
  na=           13
  -0.25979   0.03764  -0.00000
   0.11177  -0.43144  -0.00002
   0.00000  -0.00002  -0.24389
  na=           14
  -0.25979   0.03764   0.00000
   0.11177  -0.43144   0.00002
  -0.00000   0.00002  -0.24389
  na=           15
  -0.20184   0.14807   0.06251
   0.10013  -0.26761  -0.09647
   0.02337  -0.11313  -0.39342
  na=           16
  -0.20184   0.14807  -0.06251
   0.10013  -0.26761   0.09647
  -0.02337   0.11313  -0.39342
  na=           17
  -0.20184  -0.14807  -0.06251
  -0.10013  -0.26761  -0.09647
  -0.02337  -0.11313  -0.39342
  na=           18
  -0.20184  -0.14807   0.06251
  -0.10013  -0.26761   0.09647
   0.02337   0.11313  -0.39342
  na=           19
  -0.20181   0.14804   0.06247
   0.10010  -0.26760  -0.09646
   0.02335  -0.11313  -0.39344
  na=           20
  -0.20181   0.14804  -0.06247
   0.10010  -0.26760   0.09646
  -0.02335   0.11313  -0.39344
  na=           21
  -0.20181  -0.14804  -0.06247
  -0.10010  -0.26760  -0.09646
  -0.02335  -0.11313  -0.39344
  na=           22
  -0.20181  -0.14804   0.06247
  -0.10010  -0.26760   0.09646
   0.02335   0.11313  -0.39344
  Norm of the difference between old and new effective charges:    0.00111865433887010273
  nqs=            1
 q=   0.00000000  0.00000000  0.00000000
  reading force constants from file dyn2
  nqs=            2
 q=   0.00000000  0.00000000  0.48522259
 q=   0.00000000  0.00000000 -0.48522259
  reading force constants from file dyn3
  nqs=            2
 q=   0.00000000  0.32647621  0.00000000
 q=   0.00000000 -0.32647621  0.00000000
  reading force constants from file dyn4
  nqs=            4
 q=   0.00000000  0.32647621  0.48522259
 q=   0.00000000  0.32647621 -0.48522259
 q=   0.00000000 -0.32647621 -0.48522259
 q=   0.00000000 -0.32647621  0.48522259
  reading force constants from file dyn5
  nqs=            2
 q=   0.33333333  0.00000000  0.00000000
 q=  -0.33333333  0.00000000  0.00000000
  reading force constants from file dyn6
  nqs=            4
 q=   0.33333333  0.00000000  0.48522259
 q=   0.33333333  0.00000000 -0.48522259
 q=  -0.33333333  0.00000000 -0.48522259
 q=  -0.33333333  0.00000000  0.48522259
  reading force constants from file dyn7
  nqs=            4
 q=   0.33333333  0.32647621  0.00000000
 q=   0.33333333 -0.32647621  0.00000000
 q=  -0.33333333  0.32647621  0.00000000
 q=  -0.33333333 -0.32647621  0.00000000
  reading force constants from file dyn8
  nqs=            8
 q=   0.33333333  0.32647621  0.48522259
 q=  -0.33333333 -0.32647621 -0.48522259
 q=   0.33333333 -0.32647621 -0.48522259
 q=  -0.33333333  0.32647621  0.48522259
 q=  -0.33333333  0.32647621 -0.48522259
 q=   0.33333333 -0.32647621  0.48522259
 q=  -0.33333333 -0.32647621  0.48522259
 q=   0.33333333  0.32647621 -0.48522259

      q-space grid ok, #points =   27

      fft-check success (sum of imaginary terms < 10^-12)

     Q2R          :      3.07s CPU      3.12s WALL


   This run was terminated on:   6:22:10  24Jul2024            

=------------------------------------------------------------------------------=
   JOB DONE.
=------------------------------------------------------------------------------=
