
     Program PWSCF v.7.3.1 starts on 12Aug2024 at 11:12:53 

     This program is part of the open-source Quantum ESPRESSO suite
     for quantum simulation of materials; please cite
         "P. Giannozzi et al., J. Phys.:Condens. Matter 21 395502 (2009);
         "P. Giannozzi et al., J. Phys.:Condens. Matter 29 465901 (2017);
         "P. Giannozzi et al., J. Chem. Phys. 152 154105 (2020);
          URL http://www.quantum-espresso.org", 
     in publications or presentations arising from this work. More details at
     http://www.quantum-espresso.org/quote

     Parallel version (MPI), running on    24 processors

     MPI processes distributed on     1 nodes
     93792 MiB available memory on the printing compute node when the environment starts

     Waiting for input...
     Reading input from standard input

     Current dimensions of program PWSCF are:
     Max number of different atomic species (ntypx) = 10
     Max number of k-points (npk) =  40000
     Max angular momentum in pseudopotentials (lmaxx) =  4

     R & G space division:  proc/nbgrp/npool/nimage =      24
     Subspace diagonalization in iterative solution of the eigenvalue problem:
     a serial algorithm will be used


     Parallelization info
     --------------------
     sticks:   dense  smooth     PW     G-vecs:    dense   smooth      PW
     Min         460     230     61                24198     8554    1199
     Max         461     231     62                24201     8557    1202
     Sum       11053    5527   1485               580795   205333   28829

     Using Slab Decomposition


     Title: 
     pre-ph                                                                     


     bravais-lattice index     =            8
     lattice parameter (alat)  =      13.1499  a.u.
     unit-cell volume          =    1519.7234 (a.u.)^3
     number of atoms/cell      =           22
     number of atomic types    =            3
     number of electrons       =        48.00
     number of Kohn-Sham states=           24
     kinetic-energy cutoff     =     100.0000  Ry
     charge density cutoff     =     800.0000  Ry
     scf convergence threshold =      1.0E-10
     mixing beta               =       0.7000
     number of iterations used =            8  plain     mixing
     Exchange-correlation= PBESOL
                           (   1   4  10   8   0   0   0)

     celldm(1)=  13.149863  celldm(2)=   1.004995  celldm(3)=   0.665023
     celldm(4)=   0.000000  celldm(5)=   0.000000  celldm(6)=   0.000000

     crystal axes: (cart. coord. in units of alat)
               a(1) = (   1.000000   0.000000   0.000000 )  
               a(2) = (   0.000000   1.004995   0.000000 )  
               a(3) = (   0.000000   0.000000   0.665023 )  

     reciprocal axes: (cart. coord. in units 2 pi/alat)
               b(1) = (  1.000000  0.000000  0.000000 )  
               b(2) = (  0.000000  0.995030  0.000000 )  
               b(3) = (  0.000000  0.000000  1.503707 )  


     PseudoPot. # 1 for B  read from file:
     /home/mehlhorn/pseudos/b_pbesol_v1.4.uspp.F.UPF
     MD5 check sum: 369b69bef2c3aeed4453bd8b804fd6a8
     Pseudo is Ultrasoft + core correction, Zval =  3.0
     Generated by new atomic code, or converted to UPF format
     Using radial grid of  781 points,  4 beta functions with: 
                l(1) =   0
                l(2) =   0
                l(3) =   1
                l(4) =   1
     Q(r) pseudized with  8 coefficients,  rinner =    1.100   1.100   1.100


     PseudoPot. # 2 for Ba read from file:
     /home/mehlhorn/pseudos/Ba.nc.z_10.oncvpsp4.dojo.v4-sp.upf
     MD5 check sum: c10ed334bb677c0554edec7181ce9143
     Pseudo is Norm-conserving + core correction, Zval = 10.0
     Generated using ONCVPSP code by D. R. Hamann
     Using radial grid of 1938 points,  8 beta functions with: 
                l(1) =   0
                l(2) =   0
                l(3) =   1
                l(4) =   1
                l(5) =   2
                l(6) =   2
                l(7) =   3
                l(8) =   3

     PseudoPot. # 3 for H  read from file:
     /home/mehlhorn/pseudos/H_ONCV_PBEsol-1.0.upf
     MD5 check sum: 398ef8f67c0a7342c05c87c5e19ea467
     Pseudo is Norm-conserving, Zval =  1.0
     Generated using ONCVPSP code by D. R. Hamann
     Using radial grid of 1180 points,  2 beta functions with: 
                l(1) =   0
                l(2) =   0

     atomic species   valence    mass     pseudopotential
     B                 3.00    10.81100     B ( 1.00)
     Ba               10.00   137.32700     Ba( 1.00)
     H                 1.00     1.00794     H ( 1.00)

      4 Sym. Ops. (no inversion) found ( 2 have fractional translation)



   Cartesian axes

     site n.     atom                  positions (alat units)
         1        Ba     tau(   1) = (   0.5000000   0.5024976   0.3325149  )
         2        Ba     tau(   2) = (   0.0000000   0.0000000   0.6650199  )
         3        B      tau(   3) = (   0.6221553   0.2503544   0.0000034  )
         4        B      tau(   4) = (   0.3778447   0.7546409   0.0000034  )
         5        B      tau(   5) = (   0.1221553   0.2521432   0.3325082  )
         6        B      tau(   6) = (   0.8778447   0.7528520   0.3325082  )
         7        H      tau(   7) = (   0.4492521   0.2889572  -0.0000129  )
         8        H      tau(   8) = (   0.5507479   0.7160381  -0.0000129  )
         9        H      tau(   9) = (   0.9492521   0.2135405   0.3325245  )
        10        H      tau(  10) = (   0.0507479   0.7914548   0.3325245  )
        11        H      tau(  11) = (   0.7177062   0.4004542   0.0000031  )
        12        H      tau(  12) = (   0.2822938   0.6045411   0.0000031  )
        13        H      tau(  13) = (   0.2177062   0.1020434   0.3325085  )
        14        H      tau(  14) = (   0.7822938   0.9029519   0.3325085  )
        15        H      tau(  15) = (   0.6574615   0.1574470   0.5188345  )
        16        H      tau(  16) = (   0.3425385   0.8475482   0.5188345  )
        17        H      tau(  17) = (   0.1574615   0.3450506   0.4787003  )
        18        H      tau(  18) = (   0.8425385   0.6599447   0.4787003  )
        19        H      tau(  19) = (   0.3425472   0.8475474   0.1461992  )
        20        H      tau(  20) = (   0.6574528   0.1574478   0.1461992  )
        21        H      tau(  21) = (   0.8425472   0.6599455   0.1863124  )
        22        H      tau(  22) = (   0.1574528   0.3450498   0.1863124  )

     number of k points=    27
                       cart. coord. in units 2pi/alat
        k(    1) = (   0.0000000   0.0000000   0.0000000), wk =   0.0160000
        k(    2) = (   0.0000000   0.0000000   0.3007414), wk =   0.0320000
        k(    3) = (   0.0000000   0.0000000   0.6014828), wk =   0.0320000
        k(    4) = (   0.0000000   0.1990059   0.0000000), wk =   0.0320000
        k(    5) = (   0.0000000   0.1990059   0.3007414), wk =   0.0640000
        k(    6) = (   0.0000000   0.1990059   0.6014828), wk =   0.0640000
        k(    7) = (   0.0000000   0.3980118   0.0000000), wk =   0.0320000
        k(    8) = (   0.0000000   0.3980118   0.3007414), wk =   0.0640000
        k(    9) = (   0.0000000   0.3980118   0.6014828), wk =   0.0640000
        k(   10) = (   0.2000000   0.0000000   0.0000000), wk =   0.0320000
        k(   11) = (   0.2000000   0.0000000   0.3007414), wk =   0.0640000
        k(   12) = (   0.2000000   0.0000000   0.6014828), wk =   0.0640000
        k(   13) = (   0.2000000   0.1990059   0.0000000), wk =   0.0640000
        k(   14) = (   0.2000000   0.1990059   0.3007414), wk =   0.1280000
        k(   15) = (   0.2000000   0.1990059   0.6014828), wk =   0.1280000
        k(   16) = (   0.2000000   0.3980118   0.0000000), wk =   0.0640000
        k(   17) = (   0.2000000   0.3980118   0.3007414), wk =   0.1280000
        k(   18) = (   0.2000000   0.3980118   0.6014828), wk =   0.1280000
        k(   19) = (   0.4000000   0.0000000   0.0000000), wk =   0.0320000
        k(   20) = (   0.4000000   0.0000000   0.3007414), wk =   0.0640000
        k(   21) = (   0.4000000   0.0000000   0.6014828), wk =   0.0640000
        k(   22) = (   0.4000000   0.1990059   0.0000000), wk =   0.0640000
        k(   23) = (   0.4000000   0.1990059   0.3007414), wk =   0.1280000
        k(   24) = (   0.4000000   0.1990059   0.6014828), wk =   0.1280000
        k(   25) = (   0.4000000   0.3980118   0.0000000), wk =   0.0640000
        k(   26) = (   0.4000000   0.3980118   0.3007414), wk =   0.1280000
        k(   27) = (   0.4000000   0.3980118   0.6014828), wk =   0.1280000

     Dense  grid:   580795 G-vectors     FFT dimensions: ( 120, 120,  80)

     Smooth grid:   205333 G-vectors     FFT dimensions: (  90,  90,  60)

     Estimated max dynamical RAM per process >      69.50 MB

     Estimated total dynamical RAM >       1.63 GB

     Initial potential from superposition of free atoms

     starting charge      47.9682, renormalised to      48.0000
     Starting wfcs are   42 randomized atomic wfcs

     total cpu time spent up to now is       11.7 secs

     Self-consistent Calculation

     iteration #  1     ecut=   100.00 Ry     beta= 0.70
     Davidson diagonalization with overlap
     ethr =  1.00E-02,  avg # of iterations =  2.0

     total cpu time spent up to now is       27.5 secs

     total energy              =    -155.91509143 Ry
     estimated scf accuracy    <       2.13665898 Ry

     iteration #  2     ecut=   100.00 Ry     beta= 0.70
     Davidson diagonalization with overlap
     ethr =  4.45E-03,  avg # of iterations =  2.0

     total cpu time spent up to now is       42.8 secs

     total energy              =    -156.40507885 Ry
     estimated scf accuracy    <       0.37850138 Ry

     iteration #  3     ecut=   100.00 Ry     beta= 0.70
     Davidson diagonalization with overlap
     ethr =  7.89E-04,  avg # of iterations =  2.0

     total cpu time spent up to now is       58.0 secs

     total energy              =    -156.46856708 Ry
     estimated scf accuracy    <       0.00491562 Ry

     iteration #  4     ecut=   100.00 Ry     beta= 0.70
     Davidson diagonalization with overlap
     ethr =  1.02E-05,  avg # of iterations =  5.1

     total cpu time spent up to now is       80.1 secs

     total energy              =    -156.47159300 Ry
     estimated scf accuracy    <       0.00178266 Ry

     iteration #  5     ecut=   100.00 Ry     beta= 0.70
     Davidson diagonalization with overlap
     ethr =  3.71E-06,  avg # of iterations =  3.2

     total cpu time spent up to now is       95.8 secs

     total energy              =    -156.47220585 Ry
     estimated scf accuracy    <       0.00018003 Ry

     iteration #  6     ecut=   100.00 Ry     beta= 0.70
     Davidson diagonalization with overlap
     ethr =  3.75E-07,  avg # of iterations =  4.3

     total cpu time spent up to now is      113.6 secs

     total energy              =    -156.47227649 Ry
     estimated scf accuracy    <       0.00000116 Ry

     iteration #  7     ecut=   100.00 Ry     beta= 0.70
     Davidson diagonalization with overlap
     ethr =  2.41E-09,  avg # of iterations = 10.6

     total cpu time spent up to now is      153.7 secs

     total energy              =    -156.47228786 Ry
     estimated scf accuracy    <       0.00000091 Ry

     iteration #  8     ecut=   100.00 Ry     beta= 0.70
     Davidson diagonalization with overlap
     ethr =  1.89E-09,  avg # of iterations =  2.0

     total cpu time spent up to now is      168.9 secs

     total energy              =    -156.47228798 Ry
     estimated scf accuracy    <       0.00000004 Ry

     iteration #  9     ecut=   100.00 Ry     beta= 0.70
     Davidson diagonalization with overlap
     ethr =  8.29E-11,  avg # of iterations =  5.6

     total cpu time spent up to now is      189.0 secs

     total energy              =    -156.47228801 Ry
     estimated scf accuracy    <          5.1E-09 Ry

     iteration # 10     ecut=   100.00 Ry     beta= 0.70
     Davidson diagonalization with overlap
     ethr =  1.07E-11,  avg # of iterations =  3.3

     total cpu time spent up to now is      206.0 secs

     End of self-consistent calculation

          k = 0.0000 0.0000 0.0000 ( 25605 PWs)   bands (ev):

   -24.3490 -24.3423  -9.8493  -9.7888  -9.6043  -9.5683  -9.5211  -9.4692
    -6.2954  -5.4245  -4.8456  -4.7501  -1.9996  -1.0651  -1.0565  -0.7047
    -0.5314  -0.4256  -0.3215  -0.2480   0.0202   0.3169   0.3292   0.3606

          k = 0.0000 0.0000 0.3007 ( 25610 PWs)   bands (ev):

   -24.3438 -24.3384  -9.7887  -9.7409  -9.7007  -9.6730  -9.5905  -9.5641
    -5.9568  -5.2250  -4.9646  -4.8909  -1.7164  -1.3728  -1.0041  -0.9195
    -0.6232  -0.5430  -0.2758  -0.1297   0.0923   0.1860   0.2095   0.3303

          k = 0.0000 0.0000 0.6015 ( 25676 PWs)   bands (ev):

   -24.3347 -24.3326  -9.9565  -9.9512  -9.6649  -9.6442  -9.5865  -9.5752
    -5.3328  -5.1571  -5.1318  -5.0244  -1.5433  -1.4387  -1.3897  -1.1548
    -0.5474  -0.5454  -0.2223  -0.1142   0.0584   0.1041   0.1963   0.2398

          k = 0.0000 0.1990 0.0000 ( 25628 PWs)   bands (ev):

   -24.3483 -24.3430  -9.8328  -9.7719  -9.6311  -9.5888  -9.5160  -9.4741
    -6.1839  -5.3945  -4.9917  -4.8109  -1.8044  -1.2083  -1.1193  -0.5088
    -0.4493  -0.4019  -0.3589  -0.1533   0.0281   0.1248   0.2743   0.3108

          k = 0.0000 0.1990 0.3007 ( 25678 PWs)   bands (ev):

   -24.3433 -24.3389  -9.7869  -9.7270  -9.6946  -9.6870  -9.5907  -9.5778
    -5.8741  -5.1983  -5.0766  -4.9270  -1.5843  -1.3983  -1.1796  -0.6777
    -0.5540  -0.4977  -0.4365  -0.0560   0.0797   0.1838   0.1843   0.2276

          k = 0.0000 0.1990 0.6015 ( 25666 PWs)   bands (ev):

   -24.3345 -24.3328  -9.9639  -9.9590  -9.6490  -9.6352  -9.5870  -9.5803
    -5.4319  -5.3173  -5.0047  -4.8868  -1.5883  -1.5277  -1.3139  -1.0826
    -0.5053  -0.3878  -0.2396  -0.1135   0.0188   0.0410   0.1615   0.1952

          k = 0.0000 0.3980 0.0000 ( 25648 PWs)   bands (ev):

   -24.3467 -24.3446  -9.7869  -9.7435  -9.6767  -9.6398  -9.5030  -9.4869
    -5.8864  -5.5162  -5.1096  -4.9620  -1.4914  -1.3670  -0.9774  -0.4808
    -0.4690  -0.4342  -0.1933  -0.0974  -0.0464   0.0173   0.1445   0.2189

          k = 0.0000 0.3980 0.3007 ( 25636 PWs)   bands (ev):

   -24.3419 -24.3402  -9.7718  -9.7376  -9.6912  -9.6682  -9.6042  -9.6005
    -5.6500  -5.3519  -5.1169  -5.0161  -1.4273  -1.4219  -1.1190  -0.7579
    -0.4774  -0.4215  -0.3056  -0.0695  -0.0286  -0.0004   0.2048   0.2069

          k = 0.0000 0.3980 0.6015 ( 25691 PWs)   bands (ev):

   -24.3340 -24.3333  -9.9739  -9.9718  -9.6184  -9.6161  -9.5938  -9.5937
    -5.5076  -5.4678  -4.8541  -4.8031  -1.6539  -1.6432  -1.1097  -0.9862
    -0.4022  -0.3177  -0.2148  -0.1666  -0.0650   0.0097   0.0645   0.1719

          k = 0.2000 0.0000 0.0000 ( 25622 PWs)   bands (ev):

   -24.3483 -24.3430  -9.8283  -9.7757  -9.6272  -9.5956  -9.5161  -9.4741
    -6.1902  -5.4507  -4.8689  -4.8381  -1.8718  -1.0038  -0.9338  -0.9076
    -0.3926  -0.3454  -0.3218  -0.2537  -0.0240   0.0629   0.3014   0.3194

          k = 0.2000 0.0000 0.3007 ( 25667 PWs)   bands (ev):

   -24.3433 -24.3389  -9.7725  -9.7529  -9.6906  -9.6795  -9.6034  -9.5681
    -5.8680  -5.2317  -4.9835  -4.9712  -1.6294  -1.3656  -1.1138  -0.7820
    -0.6107  -0.4900  -0.3240  -0.0885  -0.0655   0.1710   0.2536   0.2886

          k = 0.2000 0.0000 0.6015 ( 25657 PWs)   bands (ev):

   -24.3345 -24.3328  -9.9655  -9.9608  -9.6544  -9.6302  -9.5920  -9.5758
    -5.3448  -5.2118  -5.1057  -4.9643  -1.7776  -1.6229  -1.2133  -0.9523
    -0.5108  -0.3688  -0.1995  -0.1614   0.0256   0.1044   0.1243   0.2436

          k = 0.2000 0.1990 0.0000 ( 25639 PWs)   bands (ev):

   -24.3478 -24.3435  -9.8379  -9.7457  -9.6729  -9.5777  -9.5120  -9.4780
    -6.1018  -5.4398  -5.0125  -4.8426  -1.7090  -1.1937  -1.0197  -0.6333
    -0.4583  -0.3966  -0.1980  -0.1464  -0.0612   0.0146   0.2042   0.2872

          k = 0.2000 0.1990 0.3007 ( 25659 PWs)   bands (ev):

   -24.3428 -24.3393  -9.7816  -9.7368  -9.7115  -9.6665  -9.6049  -9.5697
    -5.7983  -5.2065  -5.1142  -4.9632  -1.5346  -1.3791  -1.2026  -0.6765
    -0.5910  -0.4630  -0.3300  -0.0993  -0.0327   0.1309   0.2072   0.2698

          k = 0.2000 0.1990 0.6015 ( 25694 PWs)   bands (ev):

   -24.3343 -24.3330  -9.9722  -9.9558  -9.6612  -9.6128  -9.5974  -9.5787
    -5.4307  -5.2437  -5.0745  -4.8728  -1.7683  -1.6234  -1.1906  -0.9943
    -0.4625  -0.3211  -0.2186  -0.1001  -0.0435   0.0768   0.1239   0.2396

          k = 0.2000 0.3980 0.0000 ( 25639 PWs)   bands (ev):

   -24.3465 -24.3448  -9.8238  -9.7749  -9.6506  -9.5969  -9.5013  -9.4883
    -5.8636  -5.5684  -5.0804  -4.9570  -1.4348  -1.3298  -0.9500  -0.5093
    -0.5006  -0.4839  -0.2838  -0.0231  -0.0220   0.0373   0.1040   0.1813

          k = 0.2000 0.3980 0.3007 ( 25659 PWs)   bands (ev):

   -24.3417 -24.3404  -9.7796  -9.7547  -9.6982  -9.6662  -9.5990  -9.5793
    -5.6094  -5.3570  -5.1262  -5.0328  -1.4443  -1.3970  -1.1229  -0.8257
    -0.4592  -0.3747  -0.3000  -0.0997  -0.0197   0.0511   0.1735   0.2071

          k = 0.2000 0.3980 0.6015 ( 25671 PWs)   bands (ev):

   -24.3339 -24.3334  -9.9709  -9.9611  -9.6494  -9.6219  -9.5913  -9.5824
    -5.4684  -5.3977  -4.9134  -4.8343  -1.7334  -1.6624  -1.1207  -1.0314
    -0.4350  -0.3244  -0.1817  -0.0670  -0.0176   0.0524   0.0907   0.1922

          k = 0.4000 0.0000 0.0000 ( 25652 PWs)   bands (ev):

   -24.3467 -24.3446  -9.7745  -9.7436  -9.6782  -9.6561  -9.5030  -9.4870
    -5.9200  -5.6135  -4.9394  -4.9208  -1.5774  -1.2480  -0.7888  -0.5366
    -0.4262  -0.3288  -0.3198  -0.2383  -0.1724  -0.1329   0.1149   0.2066

          k = 0.4000 0.0000 0.3007 ( 25649 PWs)   bands (ev):

   -24.3419 -24.3402  -9.7540  -9.7399  -9.7155  -9.6783  -9.6092  -9.5847
    -5.6357  -5.3606  -5.0568  -5.0276  -1.4802  -1.3149  -1.1723  -0.8050
    -0.5262  -0.3700  -0.3668  -0.2660  -0.0097   0.0997   0.2294   0.2406

          k = 0.4000 0.0000 0.6015 ( 25656 PWs)   bands (ev):

   -24.3340 -24.3333  -9.9784  -9.9763  -9.6312  -9.6088  -9.6018  -9.5827
    -5.3453  -5.3017  -5.0059  -4.9418  -1.9270  -1.8630  -0.9558  -0.7996
    -0.4171  -0.2960  -0.2563  -0.1332  -0.0218   0.1036   0.1537   0.1899

          k = 0.4000 0.1990 0.0000 ( 25661 PWs)   bands (ev):

   -24.3465 -24.3448  -9.8212  -9.7721  -9.6554  -9.6010  -9.5013  -9.4884
    -5.8862  -5.6228  -4.9937  -4.9172  -1.4888  -1.2702  -0.7953  -0.5713
    -0.4513  -0.4194  -0.3900  -0.1818  -0.1003  -0.0323   0.1007   0.2189

          k = 0.4000 0.1990 0.3007 ( 25667 PWs)   bands (ev):

   -24.3417 -24.3404  -9.7741  -9.7533  -9.7088  -9.6732  -9.5971  -9.5753
    -5.6010  -5.3615  -5.0971  -5.0322  -1.4603  -1.3352  -1.1810  -0.8613
    -0.4758  -0.3521  -0.2981  -0.2032  -0.0240   0.0788   0.1899   0.2323

          k = 0.4000 0.1990 0.6015 ( 25670 PWs)   bands (ev):

   -24.3339 -24.3334  -9.9738  -9.9640  -9.6515  -9.6241  -9.5902  -9.5806
    -5.3713  -5.2589  -5.0411  -4.9188  -1.8870  -1.8274  -1.0000  -0.9266
    -0.4063  -0.2900  -0.2453  -0.1332   0.0290   0.0897   0.1691   0.2471

          k = 0.4000 0.3980 0.0000 ( 25660 PWs)   bands (ev):

   -24.3459 -24.3453  -9.8492  -9.8304  -9.5942  -9.5715  -9.4971  -9.4922
    -5.7934  -5.6829  -5.0169  -4.9678  -1.3248  -1.2762  -0.8633  -0.6802
    -0.5354  -0.5223  -0.2852  -0.1027   0.0278   0.0535   0.0840   0.1471

          k = 0.4000 0.3980 0.3007 ( 25682 PWs)   bands (ev):

   -24.3413 -24.3408  -9.7904  -9.7818  -9.6917  -9.6772  -9.5752  -9.5660
    -5.5101  -5.4071  -5.1176  -5.0747  -1.4238  -1.3713  -1.1479  -1.0096
    -0.3275  -0.2931  -0.2183  -0.1098  -0.0403   0.0573   0.1034   0.1738

          k = 0.4000 0.3980 0.6015 ( 25701 PWs)   bands (ev):

   -24.3337 -24.3335  -9.9577  -9.9509  -9.6682  -9.6540  -9.5816  -9.5797
    -5.3535  -5.2897  -5.0035  -4.9359  -1.7886  -1.7529  -1.1556  -1.1321
    -0.3446  -0.2665  -0.1105  -0.0970   0.0314   0.0433   0.2097   0.2455

     highest occupied level (ev):     0.3606

!    total energy              =    -156.47228801 Ry
     estimated scf accuracy    <          5.4E-11 Ry

     The total energy is the sum of the following terms:
     one-electron contribution =     -28.76492534 Ry
     hartree contribution      =      28.01627663 Ry
     xc contribution           =     -49.06849300 Ry
     ewald contribution        =    -106.65514630 Ry

     convergence has been achieved in  10 iterations

     Writing all to output data dir ./pwscf.save/ :
     XML data file, charge density, pseudopotentials, collected wavefunctions

     init_run     :      9.77s CPU     11.27s WALL (       1 calls)
     electrons    :    192.76s CPU    194.39s WALL (       1 calls)

     Called by init_run:
     wfcinit      :      7.27s CPU      7.34s WALL (       1 calls)
     potinit      :      0.58s CPU      1.06s WALL (       1 calls)
     hinit0       :      1.00s CPU      1.91s WALL (       1 calls)

     Called by electrons:
     c_bands      :    171.47s CPU    172.74s WALL (      10 calls)
     sum_band     :     17.90s CPU     18.13s WALL (      10 calls)
     v_of_rho     :      1.28s CPU      1.34s WALL (      11 calls)
     newd         :      2.04s CPU      2.06s WALL (      11 calls)
     mix_rho      :      0.20s CPU      0.20s WALL (      10 calls)

     Called by c_bands:
     init_us_2    :      3.53s CPU      3.59s WALL (     567 calls)
     cegterg      :    153.64s CPU    154.82s WALL (     270 calls)

     Called by *egterg:
     cdiaghg      :      2.57s CPU      2.59s WALL (    1352 calls)
     h_psi        :    108.05s CPU    109.06s WALL (    1379 calls)
     s_psi        :     22.85s CPU     22.93s WALL (    1379 calls)
     g_psi        :      0.47s CPU      0.47s WALL (    1082 calls)

     Called by h_psi:
     h_psi:calbec :     20.19s CPU     20.29s WALL (    1379 calls)
     vloc_psi     :     64.45s CPU     65.26s WALL (    1379 calls)
     add_vuspsi   :     23.04s CPU     23.14s WALL (    1379 calls)

     General routines
     calbec       :     25.48s CPU     25.62s WALL (    1649 calls)
     fft          :      1.60s CPU      2.53s WALL (     141 calls)
     ffts         :      0.48s CPU      0.94s WALL (      21 calls)
     fftw         :     63.20s CPU     63.98s WALL (   54604 calls)
     interpolate  :      0.53s CPU      0.99s WALL (      11 calls)

     Parallel routines

     PWSCF        :   3m23.42s CPU   3m27.33s WALL


   This run was terminated on:  11:16:21  12Aug2024            

=------------------------------------------------------------------------------=
   JOB DONE.
=------------------------------------------------------------------------------=
