
     Program PWSCF v.7.3.1 starts on 11Jul2024 at 15:30:39 

     This program is part of the open-source Quantum ESPRESSO suite
     for quantum simulation of materials; please cite
         "P. Giannozzi et al., J. Phys.:Condens. Matter 21 395502 (2009);
         "P. Giannozzi et al., J. Phys.:Condens. Matter 29 465901 (2017);
         "P. Giannozzi et al., J. Chem. Phys. 152 154105 (2020);
          URL http://www.quantum-espresso.org", 
     in publications or presentations arising from this work. More details at
     http://www.quantum-espresso.org/quote

     Parallel version (MPI), running on    24 processors

     MPI processes distributed on     1 nodes
     94418 MiB available memory on the printing compute node when the environment starts

     Waiting for input...
     Reading input from standard input

     Current dimensions of program PWSCF are:
     Max number of different atomic species (ntypx) = 10
     Max number of k-points (npk) =  40000
     Max angular momentum in pseudopotentials (lmaxx) =  4

     R & G space division:  proc/nbgrp/npool/nimage =      24
     Subspace diagonalization in iterative solution of the eigenvalue problem:
     a serial algorithm will be used


     Parallelization info
     --------------------
     sticks:   dense  smooth     PW     G-vecs:    dense   smooth      PW
     Min         437     218     60                23063     8148    1180
     Max         439     219     61                23064     8151    1183
     Sum       10511    5251   1449               553529   195581   28361

     Using Slab Decomposition


     Title: 
     volume variation                                                           


     bravais-lattice index     =            8
     lattice parameter (alat)  =      12.6820  a.u.
     unit-cell volume          =    1448.3748 (a.u.)^3
     number of atoms/cell      =           22
     number of atomic types    =            3
     number of electrons       =        48.00
     number of Kohn-Sham states=           24
     kinetic-energy cutoff     =     100.0000  Ry
     charge density cutoff     =     800.0000  Ry
     scf convergence threshold =      1.0E-10
     mixing beta               =       0.7000
     number of iterations used =            8  plain     mixing
     energy convergence thresh.=      1.0E-05
     force convergence thresh. =      1.0E-05
     press convergence thresh. =      5.0E-01
     Exchange-correlation= PBESOL
                           (   1   4  10   8   0   0   0)
     nstep                     =          100


     celldm(1)=  12.681987  celldm(2)=   1.025571  celldm(3)=   0.692394
     celldm(4)=   0.000000  celldm(5)=   0.000000  celldm(6)=   0.000000

     crystal axes: (cart. coord. in units of alat)
               a(1) = (   1.000000   0.000000   0.000000 )  
               a(2) = (   0.000000   1.025571   0.000000 )  
               a(3) = (   0.000000   0.000000   0.692394 )  

     reciprocal axes: (cart. coord. in units 2 pi/alat)
               b(1) = (  1.000000  0.000000  0.000000 )  
               b(2) = (  0.000000  0.975067  0.000000 )  
               b(3) = (  0.000000  0.000000  1.444264 )  


     PseudoPot. # 1 for B  read from file:
     /home/mehlhorn/pseudos/b_pbesol_v1.4.uspp.F.UPF
     MD5 check sum: 369b69bef2c3aeed4453bd8b804fd6a8
     Pseudo is Ultrasoft + core correction, Zval =  3.0
     Generated by new atomic code, or converted to UPF format
     Using radial grid of  781 points,  4 beta functions with: 
                l(1) =   0
                l(2) =   0
                l(3) =   1
                l(4) =   1
     Q(r) pseudized with  8 coefficients,  rinner =    1.100   1.100   1.100


     PseudoPot. # 2 for Ba read from file:
     /home/mehlhorn/pseudos/Ba.nc.z_10.oncvpsp4.dojo.v4-sp.upf
     MD5 check sum: c10ed334bb677c0554edec7181ce9143
     Pseudo is Norm-conserving + core correction, Zval = 10.0
     Generated using ONCVPSP code by D. R. Hamann
     Using radial grid of 1938 points,  8 beta functions with: 
                l(1) =   0
                l(2) =   0
                l(3) =   1
                l(4) =   1
                l(5) =   2
                l(6) =   2
                l(7) =   3
                l(8) =   3

     PseudoPot. # 3 for H  read from file:
     /home/mehlhorn/pseudos/H_ONCV_PBEsol-1.0.upf
     MD5 check sum: 398ef8f67c0a7342c05c87c5e19ea467
     Pseudo is Norm-conserving, Zval =  1.0
     Generated using ONCVPSP code by D. R. Hamann
     Using radial grid of 1180 points,  2 beta functions with: 
                l(1) =   0
                l(2) =   0

     atomic species   valence    mass     pseudopotential
     B                 3.00    10.81100     B ( 1.00)
     Ba               10.00   137.32700     Ba( 1.00)
     H                 1.00     1.00794     H ( 1.00)

      4 Sym. Ops. (no inversion) found ( 2 have fractional translation)



   Cartesian axes

     site n.     atom                  positions (alat units)
         1        Ba     tau(   1) = (   0.5000000   0.5127855   0.3462657  )
         2        Ba     tau(   2) = (   0.0000000   0.0000000   0.6923255  )
         3        B      tau(   3) = (   0.6102570   0.2453190   0.0000455  )
         4        B      tau(   4) = (   0.3897430   0.7802519   0.0000455  )
         5        B      tau(   5) = (   0.1102570   0.2674665   0.3461516  )
         6        B      tau(   6) = (   0.8897430   0.7581045   0.3461516  )
         7        H      tau(   7) = (   0.4340973   0.2996264   0.0001599  )
         8        H      tau(   8) = (   0.5659027   0.7259445   0.0001599  )
         9        H      tau(   9) = (   0.9340973   0.2131590   0.3460372  )
        10        H      tau(  10) = (   0.0659027   0.8124119   0.3460372  )
        11        H      tau(  11) = (   0.7220603   0.3933629  -0.0000058  )
        12        H      tau(  12) = (   0.2779397   0.6322081  -0.0000058  )
        13        H      tau(  13) = (   0.2220603   0.1194226   0.3462029  )
        14        H      tau(  14) = (   0.7779397   0.9061483   0.3462029  )
        15        H      tau(  15) = (   0.6392499   0.1457279   0.5404125  )
        16        H      tau(  16) = (   0.3607501   0.8798430   0.5404125  )
        17        H      tau(  17) = (   0.1392499   0.3670576   0.4981787  )
        18        H      tau(  18) = (   0.8607501   0.6585133   0.4981787  )
        19        H      tau(  19) = (   0.3605328   0.8798946   0.1519977  )
        20        H      tau(  20) = (   0.6394672   0.1456763   0.1519977  )
        21        H      tau(  21) = (   0.8605328   0.6584617   0.1941994  )
        22        H      tau(  22) = (   0.1394672   0.3671092   0.1941994  )

     number of k points=    27
                       cart. coord. in units 2pi/alat
        k(    1) = (   0.0000000   0.0000000   0.0000000), wk =   0.0312500
        k(    2) = (   0.0000000   0.0000000   0.3610660), wk =   0.0625000
        k(    3) = (   0.0000000   0.0000000  -0.7221320), wk =   0.0312500
        k(    4) = (   0.0000000   0.2437667   0.0000000), wk =   0.0625000
        k(    5) = (   0.0000000   0.2437667   0.3610660), wk =   0.1250000
        k(    6) = (   0.0000000   0.2437667  -0.7221320), wk =   0.0625000
        k(    7) = (   0.0000000  -0.4875333   0.0000000), wk =   0.0312500
        k(    8) = (   0.0000000  -0.4875333   0.3610660), wk =   0.0625000
        k(    9) = (   0.0000000  -0.4875333  -0.7221320), wk =   0.0312500
        k(   10) = (   0.2500000   0.0000000   0.0000000), wk =   0.0625000
        k(   11) = (   0.2500000   0.0000000   0.3610660), wk =   0.1250000
        k(   12) = (   0.2500000   0.0000000  -0.7221320), wk =   0.0625000
        k(   13) = (   0.2500000   0.2437667   0.0000000), wk =   0.1250000
        k(   14) = (   0.2500000   0.2437667   0.3610660), wk =   0.2500000
        k(   15) = (   0.2500000   0.2437667  -0.7221320), wk =   0.1250000
        k(   16) = (   0.2500000  -0.4875333   0.0000000), wk =   0.0625000
        k(   17) = (   0.2500000  -0.4875333   0.3610660), wk =   0.1250000
        k(   18) = (   0.2500000  -0.4875333  -0.7221320), wk =   0.0625000
        k(   19) = (  -0.5000000   0.0000000   0.0000000), wk =   0.0312500
        k(   20) = (  -0.5000000   0.0000000   0.3610660), wk =   0.0625000
        k(   21) = (  -0.5000000   0.0000000  -0.7221320), wk =   0.0312500
        k(   22) = (  -0.5000000   0.2437667   0.0000000), wk =   0.0625000
        k(   23) = (  -0.5000000   0.2437667   0.3610660), wk =   0.1250000
        k(   24) = (  -0.5000000   0.2437667  -0.7221320), wk =   0.0625000
        k(   25) = (  -0.5000000  -0.4875333   0.0000000), wk =   0.0312500
        k(   26) = (  -0.5000000  -0.4875333   0.3610660), wk =   0.0625000
        k(   27) = (  -0.5000000  -0.4875333  -0.7221320), wk =   0.0312500

     Dense  grid:   553529 G-vectors     FFT dimensions: ( 120, 120,  80)

     Smooth grid:   195581 G-vectors     FFT dimensions: (  90,  90,  60)

     Estimated max dynamical RAM per process >      91.62 MB

     Estimated total dynamical RAM >       2.15 GB

     Initial potential from superposition of free atoms

     starting charge      47.9682, renormalised to      48.0000
     Starting wfcs are   42 randomized atomic wfcs

     total cpu time spent up to now is       12.0 secs

     Self-consistent Calculation

     iteration #  1     ecut=   100.00 Ry     beta= 0.70
     Davidson diagonalization with overlap
     ethr =  1.00E-02,  avg # of iterations =  2.0

     total cpu time spent up to now is       27.6 secs

     total energy              =    -155.93574473 Ry
     estimated scf accuracy    <       2.05355225 Ry

     iteration #  2     ecut=   100.00 Ry     beta= 0.70
     Davidson diagonalization with overlap
     ethr =  4.28E-03,  avg # of iterations =  2.0

     total cpu time spent up to now is       42.5 secs

     total energy              =    -156.40896535 Ry
     estimated scf accuracy    <       0.36896514 Ry

     iteration #  3     ecut=   100.00 Ry     beta= 0.70
     Davidson diagonalization with overlap
     ethr =  7.69E-04,  avg # of iterations =  2.0

     total cpu time spent up to now is       57.5 secs

     total energy              =    -156.47051819 Ry
     estimated scf accuracy    <       0.00483864 Ry

     iteration #  4     ecut=   100.00 Ry     beta= 0.70
     Davidson diagonalization with overlap
     ethr =  1.01E-05,  avg # of iterations =  5.1

     total cpu time spent up to now is       79.1 secs

     total energy              =    -156.47354499 Ry
     estimated scf accuracy    <       0.00172315 Ry

     iteration #  5     ecut=   100.00 Ry     beta= 0.70
     Davidson diagonalization with overlap
     ethr =  3.59E-06,  avg # of iterations =  3.1

     total cpu time spent up to now is       94.6 secs

     total energy              =    -156.47413873 Ry
     estimated scf accuracy    <       0.00017292 Ry

     iteration #  6     ecut=   100.00 Ry     beta= 0.70
     Davidson diagonalization with overlap
     ethr =  3.60E-07,  avg # of iterations =  4.0

     total cpu time spent up to now is      111.5 secs

     total energy              =    -156.47420198 Ry
     estimated scf accuracy    <       0.00000123 Ry

     iteration #  7     ecut=   100.00 Ry     beta= 0.70
     Davidson diagonalization with overlap
     ethr =  2.57E-09,  avg # of iterations =  9.0

     total cpu time spent up to now is      146.4 secs

     total energy              =    -156.47421202 Ry
     estimated scf accuracy    <       0.00000115 Ry

     iteration #  8     ecut=   100.00 Ry     beta= 0.70
     Davidson diagonalization with overlap
     ethr =  2.39E-09,  avg # of iterations =  2.0

     total cpu time spent up to now is      161.4 secs

     total energy              =    -156.47421226 Ry
     estimated scf accuracy    <       0.00000002 Ry

     iteration #  9     ecut=   100.00 Ry     beta= 0.70
     Davidson diagonalization with overlap
     ethr =  3.43E-11,  avg # of iterations =  5.7

     total cpu time spent up to now is      182.9 secs

     total energy              =    -156.47421228 Ry
     estimated scf accuracy    <          3.6E-09 Ry

     iteration # 10     ecut=   100.00 Ry     beta= 0.70
     Davidson diagonalization with overlap
     ethr =  7.42E-12,  avg # of iterations =  2.6

     total cpu time spent up to now is      199.7 secs

     total energy              =    -156.47421228 Ry
     estimated scf accuracy    <          5.5E-10 Ry

     iteration # 11     ecut=   100.00 Ry     beta= 0.70
     Davidson diagonalization with overlap
     ethr =  1.14E-12,  avg # of iterations =  3.7

     total cpu time spent up to now is      214.7 secs

     End of self-consistent calculation

          k = 0.0000 0.0000 0.0000 ( 24387 PWs)   bands (ev):

   -23.9256 -23.9168  -9.4640  -9.3773  -9.1845  -9.1462  -9.1160  -9.0531
    -6.0267  -5.0705  -4.4003  -4.2484  -1.7359  -0.8192  -0.7623  -0.4020
    -0.0241  -0.0097   0.0334   0.1613   0.3245   0.7360   0.7545   0.7964

          k = 0.0000 0.0000 0.3611 ( 24468 PWs)   bands (ev):

   -23.9179 -23.9117  -9.3694  -9.3677  -9.3430  -9.3109  -9.1667  -9.1457
    -5.5257  -4.8124  -4.5706  -4.4737  -1.3559  -1.0983  -0.6400  -0.5841
    -0.4400  -0.3227   0.0457   0.3344   0.5342   0.5699   0.6448   0.7951

          k = 0.0000 0.0000-0.7221 ( 24448 PWs)   bands (ev):

   -23.9084 -23.9084  -9.5852  -9.5850  -9.2260  -9.2260  -9.1765  -9.1765
    -4.8106  -4.8101  -4.7237  -4.7232  -1.1160  -1.1156  -1.1021  -1.1005
    -0.0355  -0.0348   0.0322   0.0341   0.6102   0.6102   0.6245   0.6250

          k = 0.0000 0.2438 0.0000 ( 24439 PWs)   bands (ev):

   -23.9243 -23.9180  -9.4348  -9.3469  -9.2375  -9.1814  -9.1066  -9.0621
    -5.8265  -4.9802  -4.6887  -4.3785  -1.3714  -0.9467  -0.8982  -0.1219
    -0.1106  -0.0848   0.2066   0.3270   0.4105   0.4163   0.6484   0.7258

          k = 0.0000 0.2438 0.3611 ( 24436 PWs)   bands (ev):

   -23.9170 -23.9126  -9.4139  -9.3741  -9.2953  -9.2830  -9.1757  -9.1675
    -5.4187  -4.8871  -4.6144  -4.5147  -1.1642  -1.1229  -0.9218  -0.3514
    -0.3063  -0.1111  -0.0994   0.3866   0.4650   0.5110   0.6160   0.6740

          k = 0.0000 0.2438-0.7221 ( 24488 PWs)   bands (ev):

   -23.9083 -23.9083  -9.5988  -9.5987  -9.2076  -9.2076  -9.1756  -9.1756
    -5.0887  -5.0887  -4.4348  -4.4347  -1.2359  -1.2352  -0.9258  -0.9251
     0.0369   0.0371   0.0753   0.0768   0.4371   0.4372   0.6195   0.6198

          k = 0.0000-0.4875 0.0000 ( 24502 PWs)   bands (ev):

   -23.9211 -23.9211  -9.3526  -9.3526  -9.2616  -9.2616  -9.0842  -9.0842
    -5.3244  -5.3244  -4.6665  -4.6665  -1.0686  -1.0686  -0.4290  -0.4290
    -0.1893  -0.1893   0.3236   0.3236   0.4523   0.4523   0.5799   0.5799

          k = 0.0000-0.4875 0.3611 ( 24456 PWs)   bands (ev):

   -23.9148 -23.9148  -9.4128  -9.4128  -9.2398  -9.2398  -9.2053  -9.2053
    -5.1517  -5.1517  -4.5907  -4.5907  -1.1059  -1.1059  -0.6900  -0.6900
    -0.0632  -0.0632   0.2212   0.2212   0.3786   0.3786   0.5923   0.5923

          k = 0.0000-0.4875-0.7221 ( 24484 PWs)   bands (ev):

   -23.9083 -23.9083  -9.6113  -9.6113  -9.1923  -9.1923  -9.1727  -9.1727
    -5.2179  -5.2179  -4.2949  -4.2949  -1.3264  -1.3264  -0.6812  -0.6812
    -0.0379  -0.0379   0.1517   0.1517   0.2431   0.2431   0.6567   0.6567

          k = 0.2500 0.0000 0.0000 ( 24414 PWs)   bands (ev):

   -23.9243 -23.9180  -9.4253  -9.3586  -9.2276  -9.1979  -9.1066  -9.0621
    -5.8350  -5.1049  -4.4396  -4.4044  -1.5434  -0.6795  -0.6718  -0.5312
     0.0134   0.0505   0.1176   0.1848   0.2830   0.3090   0.7014   0.7406

          k = 0.2500 0.0000 0.3611 ( 24464 PWs)   bands (ev):

   -23.9170 -23.9125  -9.4046  -9.3860  -9.3241  -9.2589  -9.1920  -9.1553
    -5.3757  -4.7989  -4.6052  -4.6027  -1.3261  -1.0773  -0.9306  -0.4018
    -0.3813  -0.1109   0.1208   0.2572   0.3937   0.5256   0.7195   0.7456

          k = 0.2500 0.0000-0.7221 ( 24520 PWs)   bands (ev):

   -23.9083 -23.9083  -9.6035  -9.6033  -9.2125  -9.2124  -9.1731  -9.1730
    -4.8861  -4.8857  -4.6173  -4.6169  -1.5872  -1.5867  -0.6587  -0.6582
    -0.0444  -0.0440   0.2837   0.2851   0.4126   0.4127   0.6590   0.6593

          k = 0.2500 0.2438 0.0000 ( 24431 PWs)   bands (ev):

   -23.9233 -23.9189  -9.4530  -9.3342  -9.2797  -9.1528  -9.0998  -9.0684
    -5.6914  -5.0637  -4.6820  -4.4406  -1.2521  -0.9166  -0.6956  -0.2325
    -0.1609  -0.1136   0.1929   0.3368   0.3560   0.4328   0.5077   0.6550

          k = 0.2500 0.2438 0.3611 ( 24460 PWs)   bands (ev):

   -23.9163 -23.9132  -9.4068  -9.3672  -9.3615  -9.2391  -9.2025  -9.1488
    -5.2859  -4.8353  -4.7004  -4.5936  -1.2876  -1.0423  -0.9490  -0.3900
    -0.2262  -0.0499   0.0548   0.2753   0.3750   0.4890   0.6392   0.7242

          k = 0.2500 0.2438-0.7221 ( 24466 PWs)   bands (ev):

   -23.9083 -23.9083  -9.6105  -9.5869  -9.2336  -9.1940  -9.1806  -9.1735
    -5.0975  -4.9179  -4.5779  -4.3934  -1.5631  -1.4828  -0.7275  -0.6245
    -0.0927  -0.0904   0.2542   0.3172   0.4303   0.4717   0.6058   0.6395

          k = 0.2500-0.4875 0.0000 ( 24426 PWs)   bands (ev):

   -23.9211 -23.9211  -9.4277  -9.4277  -9.1873  -9.1873  -9.0838  -9.0838
    -5.3245  -5.3245  -4.6566  -4.6566  -0.9715  -0.9715  -0.4396  -0.4396
    -0.2273  -0.2273   0.2540   0.2540   0.4901   0.4901   0.5140   0.5140

          k = 0.2500-0.4875 0.3611 ( 24448 PWs)   bands (ev):

   -23.9147 -23.9147  -9.4016  -9.4016  -9.3012  -9.3012  -9.1627  -9.1627
    -5.0619  -5.0619  -4.6615  -4.6615  -1.1949  -1.1949  -0.6181  -0.6181
    -0.0836  -0.0836   0.2427   0.2427   0.3869   0.3869   0.6114   0.6114

          k = 0.2500-0.4875-0.7221 ( 24484 PWs)   bands (ev):

   -23.9083 -23.9083  -9.5950  -9.5950  -9.2159  -9.2159  -9.1793  -9.1793
    -5.1091  -5.1091  -4.3743  -4.3743  -1.4509  -1.4509  -0.7400  -0.7400
     0.0222   0.0222   0.1494   0.1494   0.4621   0.4621   0.6272   0.6272

          k =-0.5000 0.0000 0.0000 ( 24420 PWs)   bands (ev):

   -23.9211 -23.9211  -9.3307  -9.3307  -9.2922  -9.2922  -9.0842  -9.0842
    -5.4028  -5.4028  -4.5043  -4.5043  -1.1179  -1.1179  -0.3159  -0.3159
     0.0514   0.0514   0.0720   0.0720   0.1656   0.1656   0.5908   0.5908

          k =-0.5000 0.0000 0.3611 ( 24514 PWs)   bands (ev):

   -23.9147 -23.9147  -9.4164  -9.4164  -9.2618  -9.2618  -9.1910  -9.1910
    -5.0231  -5.0231  -4.6683  -4.6683  -1.2481  -1.2481  -0.6783  -0.6783
    -0.0826  -0.0826   0.1100   0.1100   0.4886   0.4886   0.7056   0.7056

          k =-0.5000 0.0000-0.7221 ( 24504 PWs)   bands (ev):

   -23.9083 -23.9083  -9.6204  -9.6204  -9.2016  -9.2016  -9.1682  -9.1682
    -4.9271  -4.9271  -4.5427  -4.5427  -1.8006  -1.8006  -0.3645  -0.3645
    -0.0504  -0.0504   0.1208   0.1208   0.5995   0.5995   0.6194   0.6194

          k =-0.5000 0.2438 0.0000 ( 24404 PWs)   bands (ev):

   -23.9211 -23.9211  -9.4262  -9.4262  -9.1930  -9.1930  -9.0838  -9.0838
    -5.3675  -5.3675  -4.5718  -4.5718  -1.0087  -1.0087  -0.3222  -0.3222
    -0.1601  -0.1601   0.0320   0.0320   0.3996   0.3996   0.5694   0.5694

          k =-0.5000 0.2438 0.3611 ( 24464 PWs)   bands (ev):

   -23.9147 -23.9147  -9.4039  -9.4039  -9.3056  -9.3056  -9.1615  -9.1615
    -4.9788  -4.9788  -4.7188  -4.7188  -1.2528  -1.2528  -0.6509  -0.6509
    -0.0476  -0.0476   0.1575   0.1575   0.4813   0.4813   0.6360   0.6360

          k =-0.5000 0.2438-0.7221 ( 24472 PWs)   bands (ev):

   -23.9083 -23.9083  -9.6000  -9.6000  -9.2186  -9.2186  -9.1785  -9.1785
    -4.9478  -4.9478  -4.5140  -4.5140  -1.6984  -1.6984  -0.5737  -0.5737
    -0.0057  -0.0057   0.1924   0.1924   0.5387   0.5387   0.6785   0.6785

          k =-0.5000-0.4875 0.0000 ( 24380 PWs)   bands (ev):

   -23.9211 -23.9211  -9.4717  -9.4717  -9.1440  -9.1440  -9.0834  -9.0834
    -5.3264  -5.3264  -4.6439  -4.6439  -0.8517  -0.8517  -0.4760  -0.4760
    -0.2617  -0.2617   0.2239   0.2239   0.4103   0.4103   0.5242   0.5242

          k =-0.5000-0.4875 0.3611 ( 24472 PWs)   bands (ev):

   -23.9147 -23.9147  -9.3797  -9.3797  -9.3491  -9.3491  -9.1440  -9.1440
    -4.9042  -4.9042  -4.7992  -4.7992  -1.2397  -1.2397  -0.6918  -0.6918
     0.1049   0.1049   0.2463   0.2463   0.3910   0.3910   0.5398   0.5398

          k =-0.5000-0.4875-0.7221 ( 24456 PWs)   bands (ev):

   -23.9083 -23.9083  -9.5767  -9.5767  -9.2419  -9.2419  -9.1854  -9.1854
    -4.9667  -4.9667  -4.4868  -4.4868  -1.5412  -1.5412  -0.8668  -0.8668
     0.2188   0.2188   0.2665   0.2665   0.4118   0.4118   0.6445   0.6445

     highest occupied level (ev):     0.7964

!    total energy              =    -156.47421228 Ry
     estimated scf accuracy    <          6.1E-11 Ry

     The total energy is the sum of the following terms:
     one-electron contribution =     -22.27736925 Ry
     hartree contribution      =      25.45751709 Ry
     xc contribution           =     -49.06901526 Ry
     ewald contribution        =    -110.58534487 Ry

     convergence has been achieved in  11 iterations

     Forces acting on atoms (cartesian axes, Ry/au):

     atom    1 type  2   force =     0.00000000    0.00000000    0.00001243
     atom    2 type  2   force =     0.00000000    0.00000000   -0.00001243
     atom    3 type  1   force =     0.00009364    0.00046362   -0.00001319
     atom    4 type  1   force =    -0.00009364   -0.00046362   -0.00001319
     atom    5 type  1   force =     0.00009364   -0.00046362    0.00001319
     atom    6 type  1   force =    -0.00009364    0.00046362    0.00001319
     atom    7 type  3   force =     0.00396756   -0.00100687   -0.00001764
     atom    8 type  3   force =    -0.00396756    0.00100687   -0.00001764
     atom    9 type  3   force =     0.00396756    0.00100687    0.00001764
     atom   10 type  3   force =    -0.00396756   -0.00100687    0.00001764
     atom   11 type  3   force =    -0.00262611   -0.00316677    0.00000626
     atom   12 type  3   force =     0.00262611    0.00316677    0.00000626
     atom   13 type  3   force =    -0.00262611    0.00316677   -0.00000626
     atom   14 type  3   force =     0.00262611   -0.00316677   -0.00000626
     atom   15 type  3   force =    -0.00046723    0.00232606    0.00353861
     atom   16 type  3   force =     0.00046723   -0.00232606    0.00353861
     atom   17 type  3   force =    -0.00046723   -0.00232606   -0.00353861
     atom   18 type  3   force =     0.00046723    0.00232606   -0.00353861
     atom   19 type  3   force =     0.00051683   -0.00234569   -0.00354715
     atom   20 type  3   force =    -0.00051683    0.00234569   -0.00354715
     atom   21 type  3   force =     0.00051683    0.00234569    0.00354715
     atom   22 type  3   force =    -0.00051683   -0.00234569    0.00354715

     Total force =     0.016782     Total SCF correction =     0.000004


     Computing stress (Cartesian axis) and pressure

          total   stress  (Ry/bohr**3)                   (kbar)     P=       -8.86
  -0.00005605   0.00000000   0.00000000           -8.25        0.00        0.00
   0.00000000  -0.00005723   0.00000000            0.00       -8.42        0.00
   0.00000000   0.00000000  -0.00006744            0.00        0.00       -9.92

     Volume is kept fixed: isostatic pressure set to zero

     BFGS Geometry Optimization
     Energy error            =      0.0E+00 Ry
     Gradient error          =      4.0E-03 Ry/Bohr
     Cell gradient error     =      1.1E+00 kbar

     number of scf cycles    =   1
     number of bfgs steps    =   0

     enthalpy           new  =    -156.4742122826 Ry

     new trust radius        =       0.0042838813 bohr
ibrav =      8
 celldm(1) =     12.68331394
 celldm(2) =      1.02554088
 celldm(3) =      0.69219709
Input lattice vectors:
     1.00010466     0.00000000     0.00000000
     0.00000000     1.02564821     0.00000000
     0.00000000     0.00000000     0.69226954
New lattice vectors in INITIAL alat:
     1.00010466     0.00000000     0.00000000
     0.00000000     1.02564821     0.00000000
     0.00000000     0.00000000     0.69226954
New lattice vectors in NEW alat (for information only):
     1.00000000     0.00000000     0.00000000
     0.00000000     1.02554088     0.00000000
     0.00000000     0.00000000     0.69219709
Discrepancy in bohr =     0.000000    0.000000    0.000000
     new conv_thr            =            1.0E-10 Ry

     new unit-cell volume =   1448.37484 a.u.^3 (   214.62701 Ang^3 )
     density =      2.58430 g/cm^3

CELL_PARAMETERS (alat= 12.68198668)
   1.000104657   0.000000000   0.000000000
   0.000000000   1.025648208   0.000000000
   0.000000000   0.000000000   0.692269535

ATOMIC_POSITIONS (crystal)
Ba               0.5000000000        0.5000000000        0.5001005813
Ba               0.0000000000        0.0000000000        0.9998994187
B                0.6102643998        0.2392380264        0.0000641543
B                0.3897356002        0.7607619736        0.0000641543
B                0.1102643998        0.2607619736        0.4999358457
B                0.8897356002        0.7392380264        0.4999358457
H                0.4344101027        0.2920783148        0.0002289245
H                0.5655898973        0.7079216852        0.0002289245
H                0.9344101027        0.2079216852        0.4997710755
H                0.0655898973        0.7920783148        0.4997710755
H                0.7218531940        0.3833115288       -0.0000076590
H                0.2781468060        0.6166884712       -0.0000076590
H                0.2218531940        0.1166884712        0.5000076590
H                0.7781468060        0.8833115288        0.5000076590
H                0.6392130828        0.1422732364        0.7809014016
H                0.3607869172        0.8577267636        0.7809014016
H                0.1392130828        0.3577267636        0.7190985984
H                0.8607869172        0.6422732364        0.7190985984
H                0.3605735839        0.8577755639        0.2191208881
H                0.6394264161        0.1422244361        0.2191208881
H                0.8605735839        0.6422244361        0.2808791119
H                0.1394264161        0.3577755639        0.2808791119



     Writing config-only to output data dir ./pwscf.save/ :
     XML data file
     NEW-OLD atomic charge density approx. for the potential

     total cpu time spent up to now is      245.6 secs

     Self-consistent Calculation

     iteration #  1     ecut=   100.00 Ry     beta= 0.70
     Davidson diagonalization with overlap
     ethr =  1.00E-06,  avg # of iterations =  2.8

     total cpu time spent up to now is      260.7 secs

     total energy              =    -156.47442556 Ry
     estimated scf accuracy    <       0.00005702 Ry

     iteration #  2     ecut=   100.00 Ry     beta= 0.70
     Davidson diagonalization with overlap
     ethr =  1.19E-07,  avg # of iterations =  2.0

     total cpu time spent up to now is      275.1 secs

     total energy              =    -156.47444101 Ry
     estimated scf accuracy    <       0.00000665 Ry

     iteration #  3     ecut=   100.00 Ry     beta= 0.70
     Davidson diagonalization with overlap
     ethr =  1.39E-08,  avg # of iterations =  2.0

     total cpu time spent up to now is      289.6 secs

     total energy              =    -156.47444190 Ry
     estimated scf accuracy    <       0.00000012 Ry

     iteration #  4     ecut=   100.00 Ry     beta= 0.70
     Davidson diagonalization with overlap
     ethr =  2.45E-10,  avg # of iterations =  3.1

     total cpu time spent up to now is      306.6 secs

     total energy              =    -156.47444193 Ry
     estimated scf accuracy    <       0.00000009 Ry

     iteration #  5     ecut=   100.00 Ry     beta= 0.70
     Davidson diagonalization with overlap
     ethr =  1.85E-10,  avg # of iterations =  2.0

     total cpu time spent up to now is      321.1 secs

     total energy              =    -156.47444196 Ry
     estimated scf accuracy    <          4.1E-09 Ry

     iteration #  6     ecut=   100.00 Ry     beta= 0.70
     Davidson diagonalization with overlap
     ethr =  8.44E-12,  avg # of iterations =  4.4

     total cpu time spent up to now is      338.5 secs

     total energy              =    -156.47444196 Ry
     estimated scf accuracy    <          1.1E-10 Ry

     iteration #  7     ecut=   100.00 Ry     beta= 0.70
     Davidson diagonalization with overlap
     ethr =  2.30E-13,  avg # of iterations =  5.4

     total cpu time spent up to now is      359.0 secs

     End of self-consistent calculation

          k = 0.0000 0.0000 0.0000 ( 24387 PWs)   bands (ev):

   -23.9295 -23.9207  -9.4680  -9.3811  -9.1882  -9.1498  -9.1195  -9.0567
    -6.0343  -5.0829  -4.4121  -4.2610  -1.7356  -0.8240  -0.7646  -0.4094
    -0.0303  -0.0124   0.0290   0.1552   0.3192   0.7273   0.7458   0.7871

          k = 0.0000 0.0000 0.3611 ( 24468 PWs)   bands (ev):

   -23.9218 -23.9156  -9.3732  -9.3716  -9.3470  -9.3145  -9.1704  -9.1493
    -5.5337  -4.8243  -4.5829  -4.4866  -1.3551  -1.0992  -0.6409  -0.5891
    -0.4445  -0.3275   0.0395   0.3268   0.5262   0.5614   0.6374   0.7863

          k = 0.0000 0.0000-0.7223 ( 24448 PWs)   bands (ev):

   -23.9122 -23.9122  -9.5894  -9.5893  -9.2295  -9.2295  -9.1801  -9.1801
    -4.8207  -4.8202  -4.7367  -4.7361  -1.1162  -1.1157  -1.1019  -1.1004
    -0.0422  -0.0415   0.0260   0.0278   0.6019   0.6019   0.6162   0.6167

          k = 0.0000 0.2437 0.0000 ( 24439 PWs)   bands (ev):

   -23.9282 -23.9220  -9.4388  -9.3507  -9.2413  -9.1850  -9.1101  -9.0657
    -5.8344  -4.9926  -4.6991  -4.3910  -1.3727  -0.9489  -0.9019  -0.1275
    -0.1154  -0.0925   0.2016   0.3212   0.4028   0.4103   0.6398   0.7172

          k = 0.0000 0.2437 0.3611 ( 24436 PWs)   bands (ev):

   -23.9209 -23.9165  -9.4177  -9.3781  -9.2992  -9.2867  -9.1794  -9.1711
    -5.4272  -4.8986  -4.6261  -4.5273  -1.1642  -1.1236  -0.9236  -0.3553
    -0.3111  -0.1180  -0.1046   0.3791   0.4573   0.5029   0.6082   0.6658

          k = 0.0000 0.2437-0.7223 ( 24488 PWs)   bands (ev):

   -23.9122 -23.9122  -9.6031  -9.6029  -9.2111  -9.2111  -9.1792  -9.1792
    -5.1001  -5.1001  -4.4463  -4.4463  -1.2359  -1.2353  -0.9262  -0.9255
     0.0303   0.0304   0.0687   0.0703   0.4296   0.4296   0.6110   0.6113

          k = 0.0000-0.4875 0.0000 ( 24502 PWs)   bands (ev):

   -23.9250 -23.9250  -9.3566  -9.3566  -9.2652  -9.2652  -9.0877  -9.0877
    -5.3334  -5.3334  -4.6788  -4.6788  -1.0706  -1.0706  -0.4339  -0.4339
    -0.1943  -0.1943   0.3152   0.3152   0.4462   0.4462   0.5725   0.5725

          k = 0.0000-0.4875 0.3611 ( 24456 PWs)   bands (ev):

   -23.9186 -23.9186  -9.4166  -9.4166  -9.2438  -9.2438  -9.2088  -9.2088
    -5.1616  -5.1616  -4.6027  -4.6027  -1.1065  -1.1065  -0.6928  -0.6928
    -0.0693  -0.0693   0.2151   0.2151   0.3704   0.3704   0.5844   0.5844

          k = 0.0000-0.4875-0.7223 ( 24484 PWs)   bands (ev):

   -23.9122 -23.9122  -9.6155  -9.6155  -9.1958  -9.1958  -9.1763  -9.1763
    -5.2294  -5.2294  -4.3063  -4.3063  -1.3264  -1.3264  -0.6818  -0.6818
    -0.0450  -0.0450   0.1456   0.1456   0.2355   0.2355   0.6481   0.6481

          k = 0.2500 0.0000 0.0000 ( 24414 PWs)   bands (ev):

   -23.9282 -23.9219  -9.4294  -9.3624  -9.2313  -9.2015  -9.1101  -9.0657
    -5.8430  -5.1165  -4.4515  -4.4165  -1.5436  -0.6832  -0.6747  -0.5368
     0.0086   0.0447   0.1122   0.1785   0.2770   0.3018   0.6927   0.7313

          k = 0.2500 0.0000 0.3611 ( 24464 PWs)   bands (ev):

   -23.9208 -23.9164  -9.4085  -9.3899  -9.3280  -9.2627  -9.1956  -9.1590
    -5.3841  -4.8104  -4.6176  -4.6150  -1.3251  -1.0793  -0.9309  -0.4064
    -0.3868  -0.1163   0.1137   0.2502   0.3863   0.5181   0.7108   0.7375

          k = 0.2500 0.0000-0.7223 ( 24520 PWs)   bands (ev):

   -23.9122 -23.9122  -9.6077  -9.6076  -9.2160  -9.2159  -9.1767  -9.1767
    -4.8982  -4.8978  -4.6283  -4.6280  -1.5862  -1.5857  -0.6601  -0.6597
    -0.0510  -0.0507   0.2769   0.2783   0.4051   0.4051   0.6505   0.6509

          k = 0.2500 0.2437 0.0000 ( 24431 PWs)   bands (ev):

   -23.9272 -23.9228  -9.4569  -9.3381  -9.2833  -9.1564  -9.1033  -9.0719
    -5.6998  -5.0751  -4.6930  -4.4524  -1.2539  -0.9194  -0.6997  -0.2375
    -0.1658  -0.1186   0.1857   0.3309   0.3486   0.4265   0.4994   0.6469

          k = 0.2500 0.2437 0.3611 ( 24460 PWs)   bands (ev):

   -23.9202 -23.9171  -9.4107  -9.3711  -9.3653  -9.2431  -9.2060  -9.1524
    -5.2948  -4.8470  -4.7117  -4.6059  -1.2872  -1.0427  -0.9513  -0.3948
    -0.2314  -0.0557   0.0481   0.2687   0.3674   0.4811   0.6311   0.7161

          k = 0.2500 0.2437-0.7223 ( 24466 PWs)   bands (ev):

   -23.9122 -23.9122  -9.6147  -9.5912  -9.2372  -9.1975  -9.1842  -9.1772
    -5.1093  -4.9296  -4.5894  -4.4047  -1.5621  -1.4818  -0.7294  -0.6259
    -0.0991  -0.0969   0.2478   0.3103   0.4225   0.4638   0.5979   0.6307

          k = 0.2500-0.4875 0.0000 ( 24426 PWs)   bands (ev):

   -23.9250 -23.9250  -9.4316  -9.4316  -9.1909  -9.1909  -9.0873  -9.0873
    -5.3341  -5.3341  -4.6680  -4.6680  -0.9744  -0.9744  -0.4445  -0.4445
    -0.2321  -0.2321   0.2472   0.2472   0.4837   0.4837   0.5060   0.5060

          k = 0.2500-0.4875 0.3611 ( 24448 PWs)   bands (ev):

   -23.9186 -23.9186  -9.4054  -9.4054  -9.3050  -9.3050  -9.1663  -9.1663
    -5.0721  -5.0721  -4.6732  -4.6732  -1.1951  -1.1951  -0.6219  -0.6219
    -0.0892  -0.0892   0.2359   0.2359   0.3793   0.3793   0.6035   0.6035

          k = 0.2500-0.4875-0.7223 ( 24484 PWs)   bands (ev):

   -23.9122 -23.9122  -9.5993  -9.5993  -9.2194  -9.2194  -9.1829  -9.1829
    -5.1208  -5.1208  -4.3857  -4.3857  -1.4499  -1.4499  -0.7419  -0.7419
     0.0154   0.0154   0.1433   0.1433   0.4542   0.4542   0.6188   0.6188

          k =-0.4999 0.0000 0.0000 ( 24420 PWs)   bands (ev):

   -23.9250 -23.9250  -9.3348  -9.3348  -9.2957  -9.2957  -9.0877  -9.0877
    -5.4122  -5.4122  -4.5165  -4.5165  -1.1191  -1.1191  -0.3206  -0.3206
     0.0470   0.0470   0.0646   0.0646   0.1591   0.1591   0.5821   0.5821

          k =-0.4999 0.0000 0.3611 ( 24514 PWs)   bands (ev):

   -23.9186 -23.9186  -9.4203  -9.4203  -9.2656  -9.2656  -9.1945  -9.1945
    -5.0328  -5.0328  -4.6808  -4.6808  -1.2477  -1.2477  -0.6816  -0.6816
    -0.0889  -0.0889   0.1032   0.1032   0.4812   0.4812   0.6971   0.6971

          k =-0.4999 0.0000-0.7223 ( 24504 PWs)   bands (ev):

   -23.9122 -23.9122  -9.6246  -9.6246  -9.2051  -9.2051  -9.1719  -9.1719
    -4.9397  -4.9397  -4.5534  -4.5534  -1.7990  -1.7990  -0.3666  -0.3666
    -0.0570  -0.0570   0.1139   0.1139   0.5921   0.5921   0.6106   0.6106

          k =-0.4999 0.2437 0.0000 ( 24404 PWs)   bands (ev):

   -23.9250 -23.9250  -9.4301  -9.4301  -9.1967  -9.1967  -9.0873  -9.0873
    -5.3773  -5.3773  -4.5832  -4.5832  -1.0113  -1.0113  -0.3269  -0.3269
    -0.1648  -0.1648   0.0254   0.0254   0.3933   0.3933   0.5609   0.5609

          k =-0.4999 0.2437 0.3611 ( 24464 PWs)   bands (ev):

   -23.9186 -23.9186  -9.4078  -9.4078  -9.3094  -9.3094  -9.1651  -9.1651
    -4.9888  -4.9888  -4.7308  -4.7308  -1.2526  -1.2526  -0.6546  -0.6546
    -0.0537  -0.0537   0.1508   0.1508   0.4737   0.4737   0.6281   0.6281

          k =-0.4999 0.2437-0.7223 ( 24472 PWs)   bands (ev):

   -23.9122 -23.9122  -9.6042  -9.6042  -9.2221  -9.2221  -9.1822  -9.1822
    -4.9600  -4.9600  -4.5251  -4.5251  -1.6968  -1.6968  -0.5760  -0.5760
    -0.0120  -0.0120   0.1853   0.1853   0.5310   0.5310   0.6701   0.6701

          k =-0.4999-0.4875 0.0000 ( 24380 PWs)   bands (ev):

   -23.9250 -23.9250  -9.4755  -9.4755  -9.1476  -9.1476  -9.0869  -9.0869
    -5.3368  -5.3368  -4.6544  -4.6544  -0.8566  -0.8566  -0.4793  -0.4793
    -0.2663  -0.2663   0.2170   0.2170   0.4029   0.4029   0.5176   0.5176

          k =-0.4999-0.4875 0.3611 ( 24472 PWs)   bands (ev):

   -23.9186 -23.9186  -9.3834  -9.3834  -9.3531  -9.3531  -9.1477  -9.1477
    -4.9149  -4.9149  -4.8105  -4.8105  -1.2397  -1.2397  -0.6957  -0.6957
     0.0990   0.0990   0.2385   0.2385   0.3837   0.3837   0.5328   0.5328

          k =-0.4999-0.4875-0.7223 ( 24456 PWs)   bands (ev):

   -23.9122 -23.9122  -9.5810  -9.5810  -9.2454  -9.2454  -9.1890  -9.1890
    -4.9787  -4.9787  -4.4982  -4.4982  -1.5396  -1.5396  -0.8689  -0.8689
     0.2117   0.2117   0.2587   0.2587   0.4047   0.4047   0.6366   0.6366

     highest occupied level (ev):     0.7871

!    total energy              =    -156.47444196 Ry
     estimated scf accuracy    <          4.5E-12 Ry

     The total energy is the sum of the following terms:
     one-electron contribution =     -22.40253997 Ry
     hartree contribution      =      25.51983123 Ry
     xc contribution           =     -49.08459363 Ry
     ewald contribution        =    -110.50713959 Ry

     convergence has been achieved in   7 iterations

     Forces acting on atoms (cartesian axes, Ry/au):

     atom    1 type  2   force =     0.00000000    0.00000000    0.00001030
     atom    2 type  2   force =     0.00000000    0.00000000   -0.00001030
     atom    3 type  1   force =     0.00012201    0.00051224   -0.00001113
     atom    4 type  1   force =    -0.00012201   -0.00051224   -0.00001113
     atom    5 type  1   force =     0.00012201   -0.00051224    0.00001113
     atom    6 type  1   force =    -0.00012201    0.00051224    0.00001113
     atom    7 type  3   force =     0.00250098   -0.00056998   -0.00001749
     atom    8 type  3   force =    -0.00250098    0.00056998   -0.00001749
     atom    9 type  3   force =     0.00250098    0.00056998    0.00001749
     atom   10 type  3   force =    -0.00250098   -0.00056998    0.00001749
     atom   11 type  3   force =    -0.00165703   -0.00186776    0.00000510
     atom   12 type  3   force =     0.00165703    0.00186776    0.00000510
     atom   13 type  3   force =    -0.00165703    0.00186776   -0.00000510
     atom   14 type  3   force =     0.00165703   -0.00186776   -0.00000510
     atom   15 type  3   force =    -0.00021296    0.00144960    0.00212295
     atom   16 type  3   force =     0.00021296   -0.00144960    0.00212295
     atom   17 type  3   force =    -0.00021296   -0.00144960   -0.00212295
     atom   18 type  3   force =     0.00021296    0.00144960   -0.00212295
     atom   19 type  3   force =     0.00025847   -0.00146682   -0.00213137
     atom   20 type  3   force =    -0.00025847    0.00146682   -0.00213137
     atom   21 type  3   force =     0.00025847    0.00146682    0.00213137
     atom   22 type  3   force =    -0.00025847   -0.00146682    0.00213137

     Total force =     0.010297     Total SCF correction =     0.000001


     Computing stress (Cartesian axis) and pressure

          total   stress  (Ry/bohr**3)                   (kbar)     P=       -6.93
  -0.00004397   0.00000000   0.00000000           -6.47        0.00        0.00
   0.00000000  -0.00004457   0.00000000            0.00       -6.56        0.00
   0.00000000   0.00000000  -0.00005273            0.00        0.00       -7.76

     Volume is kept fixed: isostatic pressure set to zero
     Energy error            =      2.3E-04 Ry
     Gradient error          =      2.5E-03 Ry/Bohr
     Cell gradient error     =      8.3E-01 kbar

     number of scf cycles    =   2
     number of bfgs steps    =   1

     enthalpy           old  =    -156.4742122826 Ry
     enthalpy           new  =    -156.4744419608 Ry

     CASE: enthalpy          _new < enthalpy          _old

     new trust radius        =       0.0064251840 bohr
ibrav =      8
 celldm(1) =     12.68575598
 celldm(2) =      1.02550290
 celldm(3) =      0.69182304
Input lattice vectors:
     1.00029722     0.00000000     0.00000000
     0.00000000     1.02580770     0.00000000
     0.00000000     0.00000000     0.69202866
New lattice vectors in INITIAL alat:
     1.00029722     0.00000000     0.00000000
     0.00000000     1.02580770     0.00000000
     0.00000000     0.00000000     0.69202866
New lattice vectors in NEW alat (for information only):
     1.00000000     0.00000000     0.00000000
     0.00000000     1.02550290     0.00000000
     0.00000000     0.00000000     0.69182304
Discrepancy in bohr =     0.000000    0.000000    0.000000
     new conv_thr            =            2.3E-11 Ry

     new unit-cell volume =   1448.37484 a.u.^3 (   214.62701 Ang^3 )
     density =      2.58430 g/cm^3

CELL_PARAMETERS (alat= 12.68198668)
   1.000297217   0.000000000   0.000000000
   0.000000000   1.025807695   0.000000000
   0.000000000   0.000000000   0.692028662

ATOMIC_POSITIONS (crystal)
Ba               0.5000000000        0.5000000000        0.5001034761
Ba               0.0000000000        0.0000000000        0.9998965239
B                0.6102881006        0.2393350952        0.0000610274
B                0.3897118994        0.7606649048        0.0000610274
B                0.1102881006        0.2606649048        0.4999389726
B                0.8897118994        0.7393350952        0.4999389726
H                0.4348974373        0.2919699471        0.0002240160
H                0.5651025627        0.7080300529        0.0002240160
H                0.9348974373        0.2080300529        0.4997759840
H                0.0651025627        0.7919699471        0.4997759840
H                0.7215303111        0.3829565177       -0.0000062263
H                0.2784696889        0.6170434823       -0.0000062263
H                0.2215303111        0.1170434823        0.5000062263
H                0.7784696889        0.8829565177        0.5000062263
H                0.6391714888        0.1425486709        0.7814988696
H                0.3608285112        0.8574513291        0.7814988696
H                0.1391714888        0.3574513291        0.7185011304
H                0.8608285112        0.6425486709        0.7185011304
H                0.3606240283        0.8574968638        0.2185210570
H                0.6393759717        0.1425031362        0.2185210570
H                0.8606240283        0.6425031362        0.2814789430
H                0.1393759717        0.3574968638        0.2814789430



     Writing config-only to output data dir ./pwscf.save/ :
     XML data file
     NEW-OLD atomic charge density approx. for the potential

     total cpu time spent up to now is      389.7 secs

     Self-consistent Calculation

     iteration #  1     ecut=   100.00 Ry     beta= 0.70
     Davidson diagonalization with overlap
     ethr =  1.00E-06,  avg # of iterations =  3.0

     total cpu time spent up to now is      406.9 secs

     total energy              =    -156.47454130 Ry
     estimated scf accuracy    <       0.00014314 Ry

     iteration #  2     ecut=   100.00 Ry     beta= 0.70
     Davidson diagonalization with overlap
     ethr =  2.98E-07,  avg # of iterations =  2.0

     total cpu time spent up to now is      421.4 secs

     total energy              =    -156.47457837 Ry
     estimated scf accuracy    <       0.00002297 Ry

     iteration #  3     ecut=   100.00 Ry     beta= 0.70
     Davidson diagonalization with overlap
     ethr =  4.78E-08,  avg # of iterations =  2.0

     total cpu time spent up to now is      435.8 secs

     total energy              =    -156.47458172 Ry
     estimated scf accuracy    <       0.00000023 Ry

     iteration #  4     ecut=   100.00 Ry     beta= 0.70
     Davidson diagonalization with overlap
     ethr =  4.69E-10,  avg # of iterations =  3.5

     total cpu time spent up to now is      453.6 secs

     total energy              =    -156.47458183 Ry
     estimated scf accuracy    <       0.00000017 Ry

     iteration #  5     ecut=   100.00 Ry     beta= 0.70
     Davidson diagonalization with overlap
     ethr =  3.54E-10,  avg # of iterations =  2.0

     total cpu time spent up to now is      468.0 secs

     total energy              =    -156.47458186 Ry
     estimated scf accuracy    <          1.9E-09 Ry

     iteration #  6     ecut=   100.00 Ry     beta= 0.70
     Davidson diagonalization with overlap
     ethr =  3.92E-12,  avg # of iterations =  6.1

     total cpu time spent up to now is      491.7 secs

     total energy              =    -156.47458187 Ry
     estimated scf accuracy    <          1.1E-09 Ry

     iteration #  7     ecut=   100.00 Ry     beta= 0.70
     Davidson diagonalization with overlap
     ethr =  2.30E-12,  avg # of iterations =  2.0

     total cpu time spent up to now is      506.1 secs

     End of self-consistent calculation

          k = 0.0000 0.0000 0.0000 ( 24387 PWs)   bands (ev):

   -23.9352 -23.9264  -9.4741  -9.3867  -9.1937  -9.1551  -9.1246  -9.0620
    -6.0459  -5.1017  -4.4300  -4.2802  -1.7359  -0.8319  -0.7685  -0.4212
    -0.0387  -0.0180   0.0238   0.1470   0.3125   0.7140   0.7316   0.7719

          k = 0.0000 0.0000 0.3613 ( 24468 PWs)   bands (ev):

   -23.9275 -23.9212  -9.3789  -9.3776  -9.3532  -9.3199  -9.1758  -9.1546
    -5.5456  -4.8421  -4.6017  -4.5064  -1.3542  -1.1009  -0.6429  -0.5974
    -0.4508  -0.3339   0.0302   0.3156   0.5132   0.5483   0.6262   0.7725

          k = 0.0000 0.0000-0.7225 ( 24448 PWs)   bands (ev):

   -23.9179 -23.9179  -9.5962  -9.5960  -9.2347  -9.2346  -9.1854  -9.1854
    -4.8355  -4.8350  -4.7567  -4.7562  -1.1159  -1.1153  -1.1022  -1.1006
    -0.0530  -0.0523   0.0165   0.0184   0.5891   0.5891   0.6036   0.6040

          k = 0.0000 0.2437 0.0000 ( 24439 PWs)   bands (ev):

   -23.9339 -23.9277  -9.4448  -9.3564  -9.2467  -9.1903  -9.1152  -9.0709
    -5.8465  -5.0116  -4.7148  -4.4100  -1.3753  -0.9528  -0.9081  -0.1347
    -0.1214  -0.1048   0.1928   0.3134   0.3902   0.4027   0.6266   0.7032

          k = 0.0000 0.2437 0.3613 ( 24436 PWs)   bands (ev):

   -23.9265 -23.9221  -9.4236  -9.3841  -9.3051  -9.2921  -9.1849  -9.1764
    -5.4399  -4.9159  -4.6441  -4.5466  -1.1645  -1.1251  -0.9268  -0.3604
    -0.3184  -0.1285  -0.1124   0.3677   0.4451   0.4902   0.5963   0.6528

          k = 0.0000 0.2437-0.7225 ( 24488 PWs)   bands (ev):

   -23.9179 -23.9179  -9.6097  -9.6096  -9.2162  -9.2162  -9.1846  -9.1846
    -5.1173  -5.1173  -4.4638  -4.4638  -1.2363  -1.2356  -0.9264  -0.9256
     0.0195   0.0197   0.0587   0.0603   0.4182   0.4182   0.5977   0.5979

          k = 0.0000-0.4874 0.0000 ( 24502 PWs)   bands (ev):

   -23.9308 -23.9308  -9.3626  -9.3626  -9.2704  -9.2704  -9.0929  -9.0929
    -5.3472  -5.3472  -4.6972  -4.6972  -1.0740  -1.0740  -0.4423  -0.4423
    -0.2006  -0.2006   0.3019   0.3019   0.4382   0.4382   0.5602   0.5602

          k = 0.0000-0.4874 0.3613 ( 24456 PWs)   bands (ev):

   -23.9243 -23.9243  -9.4226  -9.4226  -9.2496  -9.2496  -9.2140  -9.2140
    -5.1765  -5.1765  -4.6210  -4.6210  -1.1077  -1.1077  -0.6972  -0.6972
    -0.0782  -0.0782   0.2060   0.2060   0.3572   0.3572   0.5721   0.5721

          k = 0.0000-0.4874-0.7225 ( 24484 PWs)   bands (ev):

   -23.9179 -23.9179  -9.6221  -9.6221  -9.2009  -9.2009  -9.1817  -9.1817
    -5.2468  -5.2468  -4.3235  -4.3235  -1.3266  -1.3266  -0.6820  -0.6820
    -0.0562  -0.0562   0.1360   0.1360   0.2239   0.2239   0.6345   0.6345

          k = 0.2499 0.0000 0.0000 ( 24414 PWs)   bands (ev):

   -23.9339 -23.9276  -9.4354  -9.3679  -9.2369  -9.2068  -9.1152  -9.0709
    -5.8554  -5.1342  -4.4697  -4.4350  -1.5446  -0.6895  -0.6796  -0.5460
     0.0024   0.0372   0.1053   0.1680   0.2694   0.2905   0.6786   0.7160

          k = 0.2499 0.0000 0.3613 ( 24464 PWs)   bands (ev):

   -23.9265 -23.9221  -9.4144  -9.3959  -9.3337  -9.2683  -9.2009  -9.1643
    -5.3968  -4.8276  -4.6367  -4.6339  -1.3237  -1.0824  -0.9316  -0.4132
    -0.3958  -0.1240   0.1031   0.2392   0.3754   0.5065   0.6969   0.7249

          k = 0.2499 0.0000-0.7225 ( 24520 PWs)   bands (ev):

   -23.9179 -23.9179  -9.6144  -9.6143  -9.2211  -9.2210  -9.1820  -9.1820
    -4.9167  -4.9163  -4.6450  -4.6447  -1.5845  -1.5840  -0.6621  -0.6618
    -0.0618  -0.0614   0.2665   0.2680   0.3937   0.3937   0.6374   0.6377

          k = 0.2499 0.2437 0.0000 ( 24431 PWs)   bands (ev):

   -23.9329 -23.9285  -9.4628  -9.3440  -9.2886  -9.1619  -9.1085  -9.0771
    -5.7128  -5.0927  -4.7097  -4.4703  -1.2572  -0.9242  -0.7066  -0.2458
    -0.1720  -0.1250   0.1740   0.3230   0.3364   0.4183   0.4859   0.6339

          k = 0.2499 0.2437 0.3613 ( 24460 PWs)   bands (ev):

   -23.9259 -23.9227  -9.4167  -9.3771  -9.3708  -9.2489  -9.2112  -9.1578
    -5.3082  -4.8646  -4.7289  -4.6248  -1.2869  -1.0436  -0.9551  -0.4020
    -0.2396  -0.0640   0.0380   0.2583   0.3555   0.4689   0.6185   0.7034

          k = 0.2499 0.2437-0.7225 ( 24466 PWs)   bands (ev):

   -23.9179 -23.9178  -9.6214  -9.5979  -9.2422  -9.2026  -9.1895  -9.1826
    -5.1273  -4.9473  -4.6067  -4.4217  -1.5606  -1.4801  -0.7320  -0.6278
    -0.1095  -0.1073   0.2384   0.2999   0.4096   0.4518   0.5861   0.6164

          k = 0.2499-0.4874 0.0000 ( 24426 PWs)   bands (ev):

   -23.9307 -23.9307  -9.4373  -9.4373  -9.1964  -9.1964  -9.0925  -9.0925
    -5.3491  -5.3491  -4.6851  -4.6851  -0.9793  -0.9793  -0.4528  -0.4528
    -0.2381  -0.2381   0.2361   0.2361   0.4753   0.4753   0.4930   0.4930

          k = 0.2499-0.4874 0.3613 ( 24448 PWs)   bands (ev):

   -23.9243 -23.9243  -9.4112  -9.4112  -9.3107  -9.3107  -9.1716  -9.1716
    -5.0875  -5.0875  -4.6910  -4.6910  -1.1956  -1.1956  -0.6278  -0.6278
    -0.0975  -0.0975   0.2254   0.2254   0.3673   0.3673   0.5913   0.5913

          k = 0.2499-0.4874-0.7225 ( 24484 PWs)   bands (ev):

   -23.9178 -23.9178  -9.6060  -9.6060  -9.2245  -9.2245  -9.1883  -9.1883
    -5.1385  -5.1385  -4.4030  -4.4030  -1.4486  -1.4486  -0.7443  -0.7443
     0.0048   0.0048   0.1336   0.1336   0.4421   0.4421   0.6056   0.6056

          k =-0.4999 0.0000 0.0000 ( 24420 PWs)   bands (ev):

   -23.9307 -23.9307  -9.3408  -9.3408  -9.3009  -9.3009  -9.0929  -9.0929
    -5.4266  -5.4266  -4.5350  -4.5350  -1.1218  -1.1218  -0.3280  -0.3280
     0.0417   0.0417   0.0526   0.0526   0.1503   0.1503   0.5677   0.5677

          k =-0.4999 0.0000 0.3613 ( 24514 PWs)   bands (ev):

   -23.9243 -23.9243  -9.4262  -9.4262  -9.2713  -9.2713  -9.1999  -9.1999
    -5.0475  -5.0475  -4.6997  -4.6997  -1.2471  -1.2471  -0.6868  -0.6868
    -0.0987  -0.0987   0.0931   0.0931   0.4704   0.4704   0.6835   0.6835

          k =-0.4999 0.0000-0.7225 ( 24504 PWs)   bands (ev):

   -23.9178 -23.9178  -9.6313  -9.6313  -9.2102  -9.2102  -9.1772  -9.1772
    -4.9591  -4.9591  -4.5693  -4.5693  -1.7966  -1.7966  -0.3694  -0.3694
    -0.0677  -0.0677   0.1035   0.1035   0.5811   0.5811   0.5966   0.5966

          k =-0.4999 0.2437 0.0000 ( 24404 PWs)   bands (ev):

   -23.9307 -23.9307  -9.4358  -9.4358  -9.2022  -9.2022  -9.0925  -9.0925
    -5.3925  -5.3925  -4.6004  -4.6004  -1.0159  -1.0159  -0.3345  -0.3345
    -0.1707  -0.1707   0.0147   0.0147   0.3849   0.3849   0.5471   0.5471

          k =-0.4999 0.2437 0.3613 ( 24464 PWs)   bands (ev):

   -23.9243 -23.9243  -9.4136  -9.4136  -9.3151  -9.3151  -9.1705  -9.1705
    -5.0040  -5.0040  -4.7491  -4.7491  -1.2524  -1.2524  -0.6602  -0.6602
    -0.0635  -0.0635   0.1409   0.1409   0.4623   0.4623   0.6155   0.6155

          k =-0.4999 0.2437-0.7225 ( 24472 PWs)   bands (ev):

   -23.9178 -23.9178  -9.6109  -9.6109  -9.2272  -9.2272  -9.1875  -9.1875
    -4.9788  -4.9788  -4.5417  -4.5417  -1.6945  -1.6945  -0.5792  -0.5792
    -0.0221  -0.0221   0.1747   0.1747   0.5186   0.5186   0.6574   0.6574

          k =-0.4999-0.4874 0.0000 ( 24380 PWs)   bands (ev):

   -23.9307 -23.9307  -9.4812  -9.4812  -9.1531  -9.1531  -9.0922  -9.0922
    -5.3529  -5.3529  -4.6702  -4.6702  -0.8644  -0.8644  -0.4852  -0.4852
    -0.2719  -0.2719   0.2053   0.2053   0.3914   0.3914   0.5088   0.5088

          k =-0.4999-0.4874 0.3613 ( 24472 PWs)   bands (ev):

   -23.9243 -23.9243  -9.3888  -9.3888  -9.3592  -9.3592  -9.1530  -9.1530
    -4.9311  -4.9311  -4.8276  -4.8276  -1.2399  -1.2399  -0.7017  -0.7017
     0.0900   0.0900   0.2264   0.2264   0.3719   0.3719   0.5225   0.5225

          k =-0.4999-0.4874-0.7225 ( 24456 PWs)   bands (ev):

   -23.9178 -23.9178  -9.5878  -9.5878  -9.2505  -9.2505  -9.1943  -9.1943
    -4.9969  -4.9969  -4.5153  -4.5153  -1.5374  -1.5374  -0.8716  -0.8716
     0.2013   0.2013   0.2465   0.2465   0.3927   0.3927   0.6249   0.6249

     highest occupied level (ev):     0.7725

!    total energy              =    -156.47458187 Ry
     estimated scf accuracy    <          6.3E-12 Ry

     The total energy is the sum of the following terms:
     one-electron contribution =     -22.59808309 Ry
     hartree contribution      =      25.61725125 Ry
     xc contribution           =     -49.10833857 Ry
     ewald contribution        =    -110.38541146 Ry

     convergence has been achieved in   7 iterations

     Forces acting on atoms (cartesian axes, Ry/au):

     atom    1 type  2   force =     0.00000000    0.00000000    0.00000591
     atom    2 type  2   force =     0.00000000    0.00000000   -0.00000591
     atom    3 type  1   force =     0.00014002    0.00030299   -0.00000876
     atom    4 type  1   force =    -0.00014002   -0.00030299   -0.00000876
     atom    5 type  1   force =     0.00014002   -0.00030299    0.00000876
     atom    6 type  1   force =    -0.00014002    0.00030299    0.00000876
     atom    7 type  3   force =     0.00023764    0.00010917   -0.00001768
     atom    8 type  3   force =    -0.00023764   -0.00010917   -0.00001768
     atom    9 type  3   force =     0.00023764   -0.00010917    0.00001768
     atom   10 type  3   force =    -0.00023764    0.00010917    0.00001768
     atom   11 type  3   force =    -0.00009279    0.00022192    0.00000308
     atom   12 type  3   force =     0.00009279   -0.00022192    0.00000308
     atom   13 type  3   force =    -0.00009279   -0.00022192   -0.00000308
     atom   14 type  3   force =     0.00009279    0.00022192   -0.00000308
     atom   15 type  3   force =     0.00016040    0.00018539    0.00001731
     atom   16 type  3   force =    -0.00016040   -0.00018539    0.00001731
     atom   17 type  3   force =     0.00016040   -0.00018539   -0.00001731
     atom   18 type  3   force =    -0.00016040    0.00018539   -0.00001731
     atom   19 type  3   force =    -0.00012257   -0.00019694   -0.00002343
     atom   20 type  3   force =     0.00012257    0.00019694   -0.00002343
     atom   21 type  3   force =    -0.00012257    0.00019694    0.00002343
     atom   22 type  3   force =     0.00012257   -0.00019694    0.00002343

     Total force =     0.001188     Total SCF correction =     0.000001


     Computing stress (Cartesian axis) and pressure

          total   stress  (Ry/bohr**3)                   (kbar)     P=       -3.96
  -0.00002512   0.00000000   0.00000000           -3.69        0.00        0.00
   0.00000000  -0.00002517   0.00000000            0.00       -3.70        0.00
   0.00000000   0.00000000  -0.00003052            0.00        0.00       -4.49

     Volume is kept fixed: isostatic pressure set to zero
     Energy error            =      1.4E-04 Ry
     Gradient error          =      3.0E-04 Ry/Bohr
     Cell gradient error     =      5.3E-01 kbar

     number of scf cycles    =   3
     number of bfgs steps    =   2

     enthalpy           old  =    -156.4744419608 Ry
     enthalpy           new  =    -156.4745818669 Ry

     CASE: enthalpy          _new < enthalpy          _old

     new trust radius        =       0.0008140114 bohr
ibrav =      8
 celldm(1) =     12.68645270
 celldm(2) =      1.02549988
 celldm(3) =      0.69171110
Input lattice vectors:
     1.00035215     0.00000000     0.00000000
     0.00000000     1.02586102     0.00000000
     0.00000000     0.00000000     0.69195469
New lattice vectors in INITIAL alat:
     1.00035215     0.00000000     0.00000000
     0.00000000     1.02586102     0.00000000
     0.00000000     0.00000000     0.69195469
New lattice vectors in NEW alat (for information only):
     1.00000000     0.00000000     0.00000000
     0.00000000     1.02549988     0.00000000
     0.00000000     0.00000000     0.69171110
Discrepancy in bohr =     0.000000    0.000000    0.000000
     new conv_thr            =            1.4E-11 Ry

     new unit-cell volume =   1448.37484 a.u.^3 (   214.62701 Ang^3 )
     density =      2.58430 g/cm^3

CELL_PARAMETERS (alat= 12.68198668)
   1.000352155   0.000000000   0.000000000
   0.000000000   1.025861017   0.000000000
   0.000000000   0.000000000   0.691954689

ATOMIC_POSITIONS (crystal)
Ba               0.5000000000        0.5000000000        0.5001042884
Ba               0.0000000000        0.0000000000        0.9998957116
B                0.6103005334        0.2393630170        0.0000598656
B                0.3896994666        0.7606369830        0.0000598656
B                0.1103005334        0.2606369830        0.4999401344
B                0.8896994666        0.7393630170        0.4999401344
H                0.4349354668        0.2919746278        0.0002217261
H                0.5650645332        0.7080253722        0.0002217261
H                0.9349354668        0.2080253722        0.4997782739
H                0.0650645332        0.7919746278        0.4997782739
H                0.7215104745        0.3829609659       -0.0000058056
H                0.2784895255        0.6170390341       -0.0000058056
H                0.2215104745        0.1170390341        0.5000058056
H                0.7784895255        0.8829609659        0.5000058056
H                0.6391831353        0.1425740288        0.7815235735
H                0.3608168647        0.8574259712        0.7815235735
H                0.1391831353        0.3574259712        0.7184764265
H                0.8608168647        0.6425740288        0.7184764265
H                0.3606158356        0.8574704547        0.2184955358
H                0.6393841644        0.1425295453        0.2184955358
H                0.8606158356        0.6425295453        0.2815044642
H                0.1393841644        0.3574704547        0.2815044642



     Writing config-only to output data dir ./pwscf.save/ :
     XML data file
     NEW-OLD atomic charge density approx. for the potential

     total cpu time spent up to now is      537.0 secs

     Self-consistent Calculation

     iteration #  1     ecut=   100.00 Ry     beta= 0.70
     Davidson diagonalization with overlap
     ethr =  1.00E-06,  avg # of iterations =  1.1

     Threshold (ethr) on eigenvalues was too large:
     Diagonalizing with lowered threshold

     Davidson diagonalization with overlap
     ethr =  3.21E-10,  avg # of iterations =  4.0

     total cpu time spent up to now is      568.5 secs

     total energy              =    -156.47458402 Ry
     estimated scf accuracy    <       0.00000055 Ry

     iteration #  2     ecut=   100.00 Ry     beta= 0.70
     Davidson diagonalization with overlap
     ethr =  1.14E-09,  avg # of iterations =  2.0

     total cpu time spent up to now is      583.0 secs

     total energy              =    -156.47458416 Ry
     estimated scf accuracy    <       0.00000010 Ry

     iteration #  3     ecut=   100.00 Ry     beta= 0.70
     Davidson diagonalization with overlap
     ethr =  1.98E-10,  avg # of iterations =  2.0

     total cpu time spent up to now is      597.4 secs

     total energy              =    -156.47458418 Ry
     estimated scf accuracy    <          1.6E-09 Ry

     iteration #  4     ecut=   100.00 Ry     beta= 0.70
     Davidson diagonalization with overlap
     ethr =  3.27E-12,  avg # of iterations =  3.2

     total cpu time spent up to now is      614.1 secs

     total energy              =    -156.47458418 Ry
     estimated scf accuracy    <          4.4E-10 Ry

     iteration #  5     ecut=   100.00 Ry     beta= 0.70
     Davidson diagonalization with overlap
     ethr =  9.11E-13,  avg # of iterations =  3.9

     total cpu time spent up to now is      629.5 secs

     End of self-consistent calculation

          k = 0.0000 0.0000 0.0000 ( 24387 PWs)   bands (ev):

   -23.9353 -23.9265  -9.4743  -9.3869  -9.1939  -9.1553  -9.1247  -9.0621
    -6.0466  -5.1027  -4.4309  -4.2813  -1.7364  -0.8325  -0.7689  -0.4223
    -0.0388  -0.0190   0.0242   0.1469   0.3129   0.7131   0.7307   0.7703

          k = 0.0000 0.0000 0.3613 ( 24468 PWs)   bands (ev):

   -23.9275 -23.9213  -9.3791  -9.3780  -9.3536  -9.3200  -9.1759  -9.1547
    -5.5461  -4.8428  -4.6029  -4.5076  -1.3543  -1.1012  -0.6433  -0.5979
    -0.4510  -0.3339   0.0297   0.3150   0.5124   0.5472   0.6255   0.7713

          k = 0.0000 0.0000-0.7226 ( 24448 PWs)   bands (ev):

   -23.9180 -23.9180  -9.5967  -9.5966  -9.2347  -9.2347  -9.1856  -9.1855
    -4.8359  -4.8355  -4.7580  -4.7575  -1.1157  -1.1152  -1.1024  -1.1009
    -0.0536  -0.0530   0.0160   0.0179   0.5879   0.5879   0.6028   0.6032

          k = 0.0000 0.2437 0.0000 ( 24439 PWs)   bands (ev):

   -23.9340 -23.9278  -9.4451  -9.3566  -9.2469  -9.1905  -9.1153  -9.0710
    -5.8472  -5.0127  -4.7156  -4.4111  -1.3760  -0.9532  -0.9086  -0.1346
    -0.1211  -0.1059   0.1917   0.3135   0.3888   0.4028   0.6257   0.7023

          k = 0.0000 0.2437 0.3613 ( 24436 PWs)   bands (ev):

   -23.9266 -23.9222  -9.4239  -9.3844  -9.3054  -9.2923  -9.1851  -9.1765
    -5.4404  -4.9167  -4.6451  -4.5477  -1.1648  -1.1253  -0.9272  -0.3605
    -0.3187  -0.1293  -0.1127   0.3671   0.4442   0.4889   0.5957   0.6518

          k = 0.0000 0.2437-0.7226 ( 24488 PWs)   bands (ev):

   -23.9180 -23.9180  -9.6103  -9.6101  -9.2163  -9.2163  -9.1847  -9.1847
    -5.1182  -5.1182  -4.4646  -4.4646  -1.2365  -1.2359  -0.9263  -0.9255
     0.0188   0.0190   0.0580   0.0596   0.4175   0.4175   0.5965   0.5967

          k = 0.0000-0.4874 0.0000 ( 24502 PWs)   bands (ev):

   -23.9309 -23.9309  -9.3629  -9.3629  -9.2706  -9.2706  -9.0930  -9.0930
    -5.3480  -5.3480  -4.6982  -4.6982  -1.0745  -1.0745  -0.4433  -0.4433
    -0.2003  -0.2003   0.3006   0.3006   0.4382   0.4382   0.5593   0.5593

          k = 0.0000-0.4874 0.3613 ( 24456 PWs)   bands (ev):

   -23.9244 -23.9244  -9.4228  -9.4228  -9.2498  -9.2498  -9.2141  -9.2141
    -5.1772  -5.1772  -4.6220  -4.6220  -1.1080  -1.1080  -0.6976  -0.6976
    -0.0786  -0.0786   0.2057   0.2057   0.3559   0.3559   0.5714   0.5714

          k = 0.0000-0.4874-0.7226 ( 24484 PWs)   bands (ev):

   -23.9179 -23.9179  -9.6227  -9.6227  -9.2009  -9.2009  -9.1819  -9.1819
    -5.2477  -5.2477  -4.3243  -4.3243  -1.3269  -1.3269  -0.6818  -0.6818
    -0.0571  -0.0571   0.1355   0.1355   0.2232   0.2232   0.6333   0.6333

          k = 0.2499 0.0000 0.0000 ( 24414 PWs)   bands (ev):

   -23.9340 -23.9277  -9.4356  -9.3681  -9.2371  -9.2070  -9.1153  -9.0710
    -5.8561  -5.1353  -4.4706  -4.4360  -1.5452  -0.6903  -0.6800  -0.5467
     0.0026   0.0373   0.1054   0.1668   0.2695   0.2898   0.6776   0.7145

          k = 0.2499 0.0000 0.3613 ( 24464 PWs)   bands (ev):

   -23.9266 -23.9222  -9.4147  -9.3962  -9.3340  -9.2685  -9.2011  -9.1644
    -5.3973  -4.8284  -4.6378  -4.6350  -1.3237  -1.0828  -0.9317  -0.4136
    -0.3963  -0.1242   0.1024   0.2384   0.3750   0.5058   0.6955   0.7240

          k = 0.2499 0.0000-0.7226 ( 24520 PWs)   bands (ev):

   -23.9179 -23.9179  -9.6149  -9.6148  -9.2212  -9.2211  -9.1822  -9.1821
    -4.9177  -4.9173  -4.6457  -4.6454  -1.5844  -1.5839  -0.6623  -0.6620
    -0.0624  -0.0620   0.2658   0.2673   0.3927   0.3927   0.6364   0.6368

          k = 0.2499 0.2437 0.0000 ( 24431 PWs)   bands (ev):

   -23.9330 -23.9286  -9.4630  -9.3442  -9.2887  -9.1620  -9.1086  -9.0772
    -5.7136  -5.0939  -4.7105  -4.4712  -1.2579  -0.9247  -0.7072  -0.2466
    -0.1717  -0.1247   0.1730   0.3231   0.3352   0.4183   0.4850   0.6327

          k = 0.2499 0.2437 0.3613 ( 24460 PWs)   bands (ev):

   -23.9259 -23.9228  -9.4169  -9.3774  -9.3709  -9.2492  -9.2114  -9.1579
    -5.3088  -4.8655  -4.7299  -4.6259  -1.2869  -1.0437  -0.9555  -0.4024
    -0.2402  -0.0644   0.0374   0.2578   0.3545   0.4681   0.6178   0.7025

          k = 0.2499 0.2437-0.7226 ( 24466 PWs)   bands (ev):

   -23.9179 -23.9179  -9.6220  -9.5984  -9.2423  -9.2027  -9.1896  -9.1827
    -5.1283  -4.9483  -4.6075  -4.4225  -1.5606  -1.4801  -0.7322  -0.6278
    -0.1101  -0.1081   0.2379   0.2994   0.4083   0.4510   0.5855   0.6150

          k = 0.2499-0.4874 0.0000 ( 24426 PWs)   bands (ev):

   -23.9308 -23.9308  -9.4375  -9.4375  -9.1965  -9.1965  -9.0926  -9.0926
    -5.3501  -5.3501  -4.6859  -4.6859  -0.9799  -0.9799  -0.4537  -0.4537
    -0.2378  -0.2378   0.2351   0.2351   0.4753   0.4753   0.4920   0.4920

          k = 0.2499-0.4874 0.3613 ( 24448 PWs)   bands (ev):

   -23.9244 -23.9244  -9.4115  -9.4115  -9.3110  -9.3110  -9.1718  -9.1718
    -5.0882  -5.0882  -4.6920  -4.6920  -1.1957  -1.1957  -0.6283  -0.6283
    -0.0978  -0.0978   0.2248   0.2248   0.3663   0.3663   0.5906   0.5906

          k = 0.2499-0.4874-0.7226 ( 24484 PWs)   bands (ev):

   -23.9179 -23.9179  -9.6065  -9.6065  -9.2246  -9.2246  -9.1884  -9.1884
    -5.1395  -5.1395  -4.4038  -4.4038  -1.4486  -1.4486  -0.7444  -0.7444
     0.0039   0.0039   0.1330   0.1330   0.4411   0.4411   0.6046   0.6046

          k =-0.4998 0.0000 0.0000 ( 24420 PWs)   bands (ev):

   -23.9308 -23.9308  -9.3411  -9.3411  -9.3010  -9.3010  -9.0930  -9.0930
    -5.4275  -5.4275  -4.5359  -4.5359  -1.1224  -1.1224  -0.3284  -0.3284
     0.0420   0.0420   0.0516   0.0516   0.1502   0.1502   0.5662   0.5662

          k =-0.4998 0.0000 0.3613 ( 24514 PWs)   bands (ev):

   -23.9244 -23.9244  -9.4265  -9.4265  -9.2715  -9.2715  -9.2000  -9.2000
    -5.0482  -5.0482  -4.7008  -4.7008  -1.2470  -1.2470  -0.6873  -0.6873
    -0.0992  -0.0992   0.0925   0.0925   0.4699   0.4699   0.6823   0.6823

          k =-0.4998 0.0000-0.7226 ( 24504 PWs)   bands (ev):

   -23.9179 -23.9179  -9.6318  -9.6318  -9.2102  -9.2102  -9.1774  -9.1774
    -4.9603  -4.9603  -4.5699  -4.5699  -1.7964  -1.7964  -0.3696  -0.3696
    -0.0684  -0.0684   0.1027   0.1027   0.5805   0.5805   0.5954   0.5954

          k =-0.4998 0.2437 0.0000 ( 24404 PWs)   bands (ev):

   -23.9308 -23.9308  -9.4360  -9.4360  -9.2024  -9.2024  -9.0926  -9.0926
    -5.3934  -5.3934  -4.6013  -4.6013  -1.0166  -1.0166  -0.3351  -0.3351
    -0.1704  -0.1704   0.0139   0.0139   0.3849   0.3849   0.5458   0.5458

          k =-0.4998 0.2437 0.3613 ( 24464 PWs)   bands (ev):

   -23.9244 -23.9244  -9.4139  -9.4139  -9.3154  -9.3154  -9.1706  -9.1706
    -5.0048  -5.0048  -4.7501  -4.7501  -1.2524  -1.2524  -0.6608  -0.6608
    -0.0641  -0.0641   0.1403   0.1403   0.4618   0.4618   0.6145   0.6145

          k =-0.4998 0.2437-0.7226 ( 24472 PWs)   bands (ev):

   -23.9179 -23.9179  -9.6115  -9.6115  -9.2273  -9.2273  -9.1876  -9.1876
    -4.9799  -4.9799  -4.5423  -4.5423  -1.6944  -1.6944  -0.5794  -0.5794
    -0.0229  -0.0229   0.1740   0.1740   0.5175   0.5175   0.6566   0.6566

          k =-0.4998-0.4874 0.0000 ( 24380 PWs)   bands (ev):

   -23.9308 -23.9308  -9.4814  -9.4814  -9.1532  -9.1532  -9.0922  -9.0922
    -5.3540  -5.3540  -4.6709  -4.6709  -0.8653  -0.8653  -0.4858  -0.4858
    -0.2716  -0.2716   0.2042   0.2042   0.3905   0.3905   0.5088   0.5088

          k =-0.4998-0.4874 0.3613 ( 24472 PWs)   bands (ev):

   -23.9244 -23.9244  -9.3890  -9.3890  -9.3596  -9.3596  -9.1531  -9.1531
    -4.9320  -4.9320  -4.8284  -4.8284  -1.2399  -1.2399  -0.7022  -0.7022
     0.0894   0.0894   0.2255   0.2255   0.3710   0.3710   0.5221   0.5221

          k =-0.4998-0.4874-0.7226 ( 24456 PWs)   bands (ev):

   -23.9179 -23.9179  -9.5883  -9.5883  -9.2505  -9.2505  -9.1944  -9.1944
    -4.9979  -4.9979  -4.5160  -4.5160  -1.5373  -1.5373  -0.8718  -0.8718
     0.2007   0.2007   0.2454   0.2454   0.3915   0.3915   0.6243   0.6243

     highest occupied level (ev):     0.7713

!    total energy              =    -156.47458418 Ry
     estimated scf accuracy    <          4.3E-12 Ry

     The total energy is the sum of the following terms:
     one-electron contribution =     -22.61278249 Ry
     hartree contribution      =      25.62458240 Ry
     xc contribution           =     -49.10963932 Ry
     ewald contribution        =    -110.37674477 Ry

     convergence has been achieved in   5 iterations

     Forces acting on atoms (cartesian axes, Ry/au):

     atom    1 type  2   force =     0.00000000    0.00000000    0.00000432
     atom    2 type  2   force =     0.00000000    0.00000000   -0.00000432
     atom    3 type  1   force =     0.00013275    0.00025041   -0.00000795
     atom    4 type  1   force =    -0.00013275   -0.00025041   -0.00000795
     atom    5 type  1   force =     0.00013275   -0.00025041    0.00000795
     atom    6 type  1   force =    -0.00013275    0.00025041    0.00000795
     atom    7 type  3   force =     0.00013404    0.00013550   -0.00001809
     atom    8 type  3   force =    -0.00013404   -0.00013550   -0.00001809
     atom    9 type  3   force =     0.00013404   -0.00013550    0.00001809
     atom   10 type  3   force =    -0.00013404    0.00013550    0.00001809
     atom   11 type  3   force =    -0.00000874    0.00032245    0.00000269
     atom   12 type  3   force =     0.00000874   -0.00032245    0.00000269
     atom   13 type  3   force =    -0.00000874   -0.00032245   -0.00000269
     atom   14 type  3   force =     0.00000874    0.00032245   -0.00000269
     atom   15 type  3   force =     0.00017642    0.00014164   -0.00009934
     atom   16 type  3   force =    -0.00017642   -0.00014164   -0.00009934
     atom   17 type  3   force =     0.00017642   -0.00014164    0.00009934
     atom   18 type  3   force =    -0.00017642    0.00014164    0.00009934
     atom   19 type  3   force =    -0.00014035   -0.00015171    0.00009405
     atom   20 type  3   force =     0.00014035    0.00015171    0.00009405
     atom   21 type  3   force =    -0.00014035    0.00015171   -0.00009405
     atom   22 type  3   force =     0.00014035   -0.00015171   -0.00009405

     Total force =     0.001155     Total SCF correction =     0.000000


     Computing stress (Cartesian axis) and pressure

          total   stress  (Ry/bohr**3)                   (kbar)     P=       -3.80
  -0.00002422   0.00000000   0.00000000           -3.56        0.00        0.00
   0.00000000  -0.00002433   0.00000000            0.00       -3.58        0.00
   0.00000000   0.00000000  -0.00002892            0.00        0.00       -4.25

     Volume is kept fixed: isostatic pressure set to zero
     Energy error            =      2.3E-06 Ry
     Gradient error          =      3.2E-04 Ry/Bohr
     Cell gradient error     =      4.6E-01 kbar

     number of scf cycles    =   4
     number of bfgs steps    =   3

     enthalpy           old  =    -156.4745818669 Ry
     enthalpy           new  =    -156.4745841783 Ry

     CASE: enthalpy          _new < enthalpy          _old

     new trust radius        =       0.0012205584 bohr
ibrav =      8
 celldm(1) =     12.68750429
 celldm(2) =      1.02549432
 celldm(3) =      0.69154287
Input lattice vectors:
     1.00043508     0.00000000     0.00000000
     0.00000000     1.02594048     0.00000000
     0.00000000     0.00000000     0.69184374
New lattice vectors in INITIAL alat:
     1.00043508     0.00000000     0.00000000
     0.00000000     1.02594048     0.00000000
     0.00000000     0.00000000     0.69184374
New lattice vectors in NEW alat (for information only):
     1.00000000     0.00000000     0.00000000
     0.00000000     1.02549432     0.00000000
     0.00000000     0.00000000     0.69154287
Discrepancy in bohr =     0.000000    0.000000    0.000000
     new conv_thr            =            1.0E-12 Ry

     new unit-cell volume =   1448.37484 a.u.^3 (   214.62701 Ang^3 )
     density =      2.58430 g/cm^3

CELL_PARAMETERS (alat= 12.68198668)
   1.000435075   0.000000000   0.000000000
   0.000000000   1.025940483   0.000000000
   0.000000000   0.000000000   0.691843744

ATOMIC_POSITIONS (crystal)
Ba               0.5000000000        0.5000000000        0.5001054001
Ba               0.0000000000        0.0000000000        0.9998945999
B                0.6103206522        0.2394037431        0.0000580591
B                0.3896793478        0.7605962569        0.0000580591
B                0.1103206522        0.2605962569        0.4999419409
B                0.8896793478        0.7394037431        0.4999419409
H                0.4349766095        0.2919884413        0.0002178692
H                0.5650233905        0.7080115587        0.0002178692
H                0.9349766095        0.2080115587        0.4997821308
H                0.0650233905        0.7919884413        0.4997821308
H                0.7214938370        0.3829886001       -0.0000051723
H                0.2785061630        0.6170113999       -0.0000051723
H                0.2214938370        0.1170113999        0.5000051723
H                0.7785061630        0.8829886001        0.5000051723
H                0.6392060209        0.1426053589        0.7815324682
H                0.3607939791        0.8573946411        0.7815324682
H                0.1392060209        0.3573946411        0.7184675318
H                0.8607939791        0.6426053589        0.7184675318
H                0.3605984884        0.8574375359        0.2184854084
H                0.6394015116        0.1425624641        0.2184854084
H                0.8605984884        0.6425624641        0.2815145916
H                0.1394015116        0.3574375359        0.2815145916



     Writing config-only to output data dir ./pwscf.save/ :
     XML data file
     NEW-OLD atomic charge density approx. for the potential

     total cpu time spent up to now is      660.4 secs

     Self-consistent Calculation

     iteration #  1     ecut=   100.00 Ry     beta= 0.70
     Davidson diagonalization with overlap
     ethr =  1.00E-06,  avg # of iterations =  1.0

     Threshold (ethr) on eigenvalues was too large:
     Diagonalizing with lowered threshold

     Davidson diagonalization with overlap
     ethr =  4.06E-10,  avg # of iterations =  4.3

     total cpu time spent up to now is      693.2 secs

     total energy              =    -156.47458713 Ry
     estimated scf accuracy    <       0.00000053 Ry

     iteration #  2     ecut=   100.00 Ry     beta= 0.70
     Davidson diagonalization with overlap
     ethr =  1.09E-09,  avg # of iterations =  2.0

     total cpu time spent up to now is      707.6 secs

     total energy              =    -156.47458724 Ry
     estimated scf accuracy    <       0.00000005 Ry

     iteration #  3     ecut=   100.00 Ry     beta= 0.70
     Davidson diagonalization with overlap
     ethr =  9.70E-11,  avg # of iterations =  2.0

     total cpu time spent up to now is      722.0 secs

     total energy              =    -156.47458725 Ry
     estimated scf accuracy    <          1.5E-09 Ry

     iteration #  4     ecut=   100.00 Ry     beta= 0.70
     Davidson diagonalization with overlap
     ethr =  3.18E-12,  avg # of iterations =  4.2

     total cpu time spent up to now is      739.0 secs

     total energy              =    -156.47458725 Ry
     estimated scf accuracy    <          2.0E-10 Ry

     iteration #  5     ecut=   100.00 Ry     beta= 0.70
     Davidson diagonalization with overlap
     ethr =  4.19E-13,  avg # of iterations =  4.0

     total cpu time spent up to now is      755.7 secs

     total energy              =    -156.47458725 Ry
     estimated scf accuracy    <          5.9E-12 Ry

     iteration #  6     ecut=   100.00 Ry     beta= 0.70
     Davidson diagonalization with overlap
     ethr =  1.00E-13,  avg # of iterations =  2.8

     total cpu time spent up to now is      768.9 secs

     End of self-consistent calculation

          k = 0.0000 0.0000 0.0000 ( 24387 PWs)   bands (ev):

   -23.9351 -23.9264  -9.4744  -9.3869  -9.1940  -9.1553  -9.1246  -9.0620
    -6.0471  -5.1035  -4.4317  -4.2822  -1.7373  -0.8330  -0.7692  -0.4236
    -0.0386  -0.0202   0.0252   0.1471   0.3136   0.7122   0.7299   0.7686

          k = 0.0000 0.0000 0.3614 ( 24468 PWs)   bands (ev):

   -23.9274 -23.9212  -9.3791  -9.3782  -9.3539  -9.3200  -9.1759  -9.1546
    -5.5462  -4.8432  -4.6038  -4.5087  -1.3546  -1.1016  -0.6439  -0.5984
    -0.4510  -0.3337   0.0293   0.3146   0.5118   0.5460   0.6250   0.7699

          k = 0.0000 0.0000-0.7227 ( 24448 PWs)   bands (ev):

   -23.9178 -23.9178  -9.5973  -9.5971  -9.2346  -9.2345  -9.1855  -9.1855
    -4.8359  -4.8354  -4.7592  -4.7587  -1.1155  -1.1149  -1.1029  -1.1014
    -0.0541  -0.0535   0.0156   0.0175   0.5864   0.5864   0.6021   0.6024

          k = 0.0000 0.2437 0.0000 ( 24439 PWs)   bands (ev):

   -23.9338 -23.9276  -9.4452  -9.3566  -9.2469  -9.1904  -9.1152  -9.0709
    -5.8478  -5.0136  -4.7160  -4.4119  -1.3770  -0.9538  -0.9091  -0.1341
    -0.1203  -0.1071   0.1904   0.3138   0.3873   0.4033   0.6248   0.7014

          k = 0.0000 0.2437 0.3614 ( 24436 PWs)   bands (ev):

   -23.9265 -23.9221  -9.4240  -9.3847  -9.3055  -9.2923  -9.1851  -9.1764
    -5.4407  -4.9172  -4.6459  -4.5487  -1.1652  -1.1257  -0.9276  -0.3603
    -0.3190  -0.1301  -0.1128   0.3665   0.4435   0.4876   0.5952   0.6509

          k = 0.0000 0.2437-0.7227 ( 24488 PWs)   bands (ev):

   -23.9178 -23.9178  -9.6108  -9.6107  -9.2161  -9.2161  -9.1847  -9.1847
    -5.1188  -5.1188  -4.4652  -4.4652  -1.2369  -1.2363  -0.9261  -0.9253
     0.0182   0.0184   0.0575   0.0591   0.4169   0.4169   0.5951   0.5953

          k = 0.0000-0.4874 0.0000 ( 24502 PWs)   bands (ev):

   -23.9307 -23.9307  -9.3630  -9.3630  -9.2705  -9.2705  -9.0929  -9.0929
    -5.3487  -5.3487  -4.6988  -4.6988  -1.0751  -1.0751  -0.4444  -0.4444
    -0.1997  -0.1997   0.2993   0.2993   0.4386   0.4386   0.5585   0.5585

          k = 0.0000-0.4874 0.3614 ( 24456 PWs)   bands (ev):

   -23.9243 -23.9243  -9.4230  -9.4230  -9.2499  -9.2499  -9.2141  -9.2141
    -5.1776  -5.1776  -4.6228  -4.6228  -1.1083  -1.1083  -0.6980  -0.6980
    -0.0789  -0.0789   0.2055   0.2055   0.3544   0.3544   0.5709   0.5709

          k = 0.0000-0.4874-0.7227 ( 24484 PWs)   bands (ev):

   -23.9178 -23.9178  -9.6232  -9.6232  -9.2008  -9.2008  -9.1818  -9.1818
    -5.2483  -5.2483  -4.3247  -4.3247  -1.3273  -1.3273  -0.6816  -0.6816
    -0.0580  -0.0580   0.1351   0.1351   0.2224   0.2224   0.6322   0.6322

          k = 0.2499 0.0000 0.0000 ( 24414 PWs)   bands (ev):

   -23.9338 -23.9276  -9.4357  -9.3681  -9.2372  -9.2069  -9.1152  -9.0710
    -5.8567  -5.1361  -4.4714  -4.4367  -1.5460  -0.6914  -0.6803  -0.5474
     0.0033   0.0377   0.1058   0.1653   0.2700   0.2893   0.6766   0.7128

          k = 0.2499 0.0000 0.3614 ( 24464 PWs)   bands (ev):

   -23.9265 -23.9221  -9.4148  -9.3963  -9.3341  -9.2685  -9.2011  -9.1644
    -5.3976  -4.8288  -4.6388  -4.6359  -1.3238  -1.0833  -0.9318  -0.4140
    -0.3968  -0.1244   0.1016   0.2377   0.3748   0.5052   0.6941   0.7233

          k = 0.2499 0.0000-0.7227 ( 24520 PWs)   bands (ev):

   -23.9178 -23.9178  -9.6155  -9.6154  -9.2210  -9.2210  -9.1821  -9.1821
    -4.9185  -4.9182  -4.6460  -4.6457  -1.5844  -1.5840  -0.6624  -0.6621
    -0.0629  -0.0625   0.2652   0.2667   0.3916   0.3916   0.6354   0.6358

          k = 0.2499 0.2437 0.0000 ( 24431 PWs)   bands (ev):

   -23.9329 -23.9285  -9.4631  -9.3444  -9.2887  -9.1620  -9.1084  -9.0771
    -5.7143  -5.0949  -4.7109  -4.4719  -1.2589  -0.9253  -0.7078  -0.2475
    -0.1711  -0.1240   0.1719   0.3234   0.3339   0.4187   0.4841   0.6315

          k = 0.2499 0.2437 0.3614 ( 24460 PWs)   bands (ev):

   -23.9258 -23.9227  -9.4171  -9.3776  -9.3709  -9.2493  -9.2113  -9.1578
    -5.3091  -4.8660  -4.7306  -4.6268  -1.2869  -1.0439  -0.9561  -0.4027
    -0.2407  -0.0646   0.0369   0.2574   0.3535   0.4673   0.6170   0.7016

          k = 0.2499 0.2437-0.7227 ( 24466 PWs)   bands (ev):

   -23.9178 -23.9178  -9.6225  -9.5990  -9.2421  -9.2025  -9.1895  -9.1827
[...]
        18        H      tau(  18) = (   0.8609097   0.6608200   0.4961953  )
        19        H      tau(  19) = (   0.3588654   0.8769904   0.1513011  )
        20        H      tau(  20) = (   0.6452525   0.1482174   0.1513011  )
        21        H      tau(  21) = (   0.8609244   0.6608214   0.1935983  )
        22        H      tau(  22) = (   0.1431935   0.3643865   0.1935983  )

     number of k points=    27
                       cart. coord. in units 2pi/alat
        k(    1) = (   0.0000000   0.0000000   0.0000000), wk =   0.0312500
        k(    2) = (   0.0000000   0.0000000   0.3624245), wk =   0.0625000
        k(    3) = (   0.0000000   0.0000000  -0.7248490), wk =   0.0312500
        k(    4) = (   0.0000000   0.2438530   0.0000000), wk =   0.0625000
        k(    5) = (   0.0000000   0.2438530   0.3624245), wk =   0.1250000
        k(    6) = (   0.0000000   0.2438530  -0.7248490), wk =   0.0625000
        k(    7) = (   0.0000000  -0.4877060   0.0000000), wk =   0.0312500
        k(    8) = (   0.0000000  -0.4877060   0.3624245), wk =   0.0625000
        k(    9) = (   0.0000000  -0.4877060  -0.7248490), wk =   0.0312500
        k(   10) = (   0.2489747   0.0000000   0.0000000), wk =   0.0625000
        k(   11) = (   0.2489747   0.0000000   0.3624245), wk =   0.1250000
        k(   12) = (   0.2489747   0.0000000  -0.7248490), wk =   0.0625000
        k(   13) = (   0.2489747   0.2438530   0.0000000), wk =   0.1250000
        k(   14) = (   0.2489747   0.2438530   0.3624245), wk =   0.2500000
        k(   15) = (   0.2489747   0.2438530  -0.7248490), wk =   0.1250000
        k(   16) = (   0.2489747  -0.4877060   0.0000000), wk =   0.0625000
        k(   17) = (   0.2489747  -0.4877060   0.3624245), wk =   0.1250000
        k(   18) = (   0.2489747  -0.4877060  -0.7248490), wk =   0.0625000
        k(   19) = (  -0.4979495   0.0000000   0.0000000), wk =   0.0312500
        k(   20) = (  -0.4979495   0.0000000   0.3624245), wk =   0.0625000
        k(   21) = (  -0.4979495   0.0000000  -0.7248490), wk =   0.0312500
        k(   22) = (  -0.4979495   0.2438530   0.0000000), wk =   0.0625000
        k(   23) = (  -0.4979495   0.2438530   0.3624245), wk =   0.1250000
        k(   24) = (  -0.4979495   0.2438530  -0.7248490), wk =   0.0625000
        k(   25) = (  -0.4979495  -0.4877060   0.0000000), wk =   0.0312500
        k(   26) = (  -0.4979495  -0.4877060   0.3624245), wk =   0.0625000
        k(   27) = (  -0.4979495  -0.4877060  -0.7248490), wk =   0.0312500

     Dense  grid:   553621 G-vectors     FFT dimensions: ( 120, 120,  80)

     Smooth grid:   195665 G-vectors     FFT dimensions: (  90,  90,  60)

     Estimated max dynamical RAM per process >      92.16 MB

     Estimated total dynamical RAM >       2.16 GB

     Initial potential from superposition of free atoms

     starting charge      47.9682, renormalised to      48.0000
     Starting wfcs are   42 randomized atomic wfcs

     total cpu time spent up to now is     7850.9 secs

     Self-consistent Calculation

     iteration #  1     ecut=   100.00 Ry     beta= 0.70
     Davidson diagonalization with overlap
     ethr =  1.00E-06,  avg # of iterations = 11.0

     total cpu time spent up to now is     7897.1 secs

     total energy              =    -155.84483462 Ry
     estimated scf accuracy    <       2.23656071 Ry

     iteration #  2     ecut=   100.00 Ry     beta= 0.70
     Davidson diagonalization with overlap
     ethr =  4.66E-03,  avg # of iterations =  2.0

     total cpu time spent up to now is     7911.9 secs

     total energy              =    -156.39957159 Ry
     estimated scf accuracy    <       0.46153640 Ry

     iteration #  3     ecut=   100.00 Ry     beta= 0.70
     Davidson diagonalization with overlap
     ethr =  9.62E-04,  avg # of iterations =  2.0

     total cpu time spent up to now is     7926.7 secs

     total energy              =    -156.47190794 Ry
     estimated scf accuracy    <       0.00562239 Ry

     iteration #  4     ecut=   100.00 Ry     beta= 0.70
     Davidson diagonalization with overlap
     ethr =  1.17E-05,  avg # of iterations =  3.3

     total cpu time spent up to now is     7945.1 secs

     total energy              =    -156.47395411 Ry
     estimated scf accuracy    <       0.00220723 Ry

     iteration #  5     ecut=   100.00 Ry     beta= 0.70
     Davidson diagonalization with overlap
     ethr =  4.60E-06,  avg # of iterations =  3.5

     total cpu time spent up to now is     7960.8 secs

     total energy              =    -156.47458954 Ry
     estimated scf accuracy    <       0.00005006 Ry

     iteration #  6     ecut=   100.00 Ry     beta= 0.70
     Davidson diagonalization with overlap
     ethr =  1.04E-07,  avg # of iterations =  6.1

     total cpu time spent up to now is     7985.0 secs

     total energy              =    -156.47468357 Ry
     estimated scf accuracy    <       0.00001617 Ry

     iteration #  7     ecut=   100.00 Ry     beta= 0.70
     Davidson diagonalization with overlap
     ethr =  3.37E-08,  avg # of iterations =  2.7

     total cpu time spent up to now is     8000.3 secs

     total energy              =    -156.47468754 Ry
     estimated scf accuracy    <       0.00000008 Ry

     iteration #  8     ecut=   100.00 Ry     beta= 0.70
     Davidson diagonalization with overlap
     ethr =  1.65E-10,  avg # of iterations =  8.1

     total cpu time spent up to now is     8032.7 secs

     total energy              =    -156.47468792 Ry
     estimated scf accuracy    <       0.00000011 Ry

     iteration #  9     ecut=   100.00 Ry     beta= 0.70
     Davidson diagonalization with overlap
     ethr =  1.65E-10,  avg # of iterations =  2.0

     total cpu time spent up to now is     8047.5 secs

     total energy              =    -156.47468793 Ry
     estimated scf accuracy    <          6.4E-09 Ry

     iteration # 10     ecut=   100.00 Ry     beta= 0.70
     Davidson diagonalization with overlap
     ethr =  1.33E-11,  avg # of iterations =  3.7

     total cpu time spent up to now is     8064.4 secs

     total energy              =    -156.47468793 Ry
     estimated scf accuracy    <          1.4E-10 Ry

     iteration # 11     ecut=   100.00 Ry     beta= 0.70
     Davidson diagonalization with overlap
     ethr =  2.81E-13,  avg # of iterations =  7.6

     total cpu time spent up to now is     8095.5 secs

     total energy              =    -156.47468793 Ry
     estimated scf accuracy    <          7.1E-11 Ry

     iteration # 12     ecut=   100.00 Ry     beta= 0.70
     Davidson diagonalization with overlap
     ethr =  1.48E-13,  avg # of iterations =  2.5

     total cpu time spent up to now is     8111.6 secs

     total energy              =    -156.47468793 Ry
     estimated scf accuracy    <          1.7E-12 Ry

     iteration # 13     ecut=   100.00 Ry     beta= 0.70
     Davidson diagonalization with overlap
     ethr =  1.00E-13,  avg # of iterations =  1.0

     total cpu time spent up to now is     8123.3 secs

     End of self-consistent calculation

          k = 0.0000 0.0000 0.0000 ( 24455 PWs)   bands (ev):

   -23.9198 -23.9110  -9.4697  -9.3845  -9.1857  -9.1455  -9.1126  -9.0495
    -6.0546  -5.1098  -4.4335  -4.2978  -1.7512  -0.8331  -0.7724  -0.4225
    -0.0647  -0.0600   0.0333   0.1094   0.3172   0.7043   0.7188   0.7599

          k = 0.0000 0.0000 0.3624 ( 24484 PWs)   bands (ev):

   -23.9118 -23.9055  -9.3753  -9.3722  -9.3512  -9.3144  -9.1668  -9.1442
    -5.5425  -4.8379  -4.6126  -4.5265  -1.3592  -1.1249  -0.6924  -0.5995
    -0.4464  -0.3356   0.0280   0.3082   0.5060   0.5290   0.6045   0.7507

          k = 0.0000 0.0000-0.7248 ( 24440 PWs)   bands (ev):

   -23.9019 -23.9019  -9.6013  -9.6013  -9.2241  -9.2241  -9.1760  -9.1760
    -4.8212  -4.8212  -4.7775  -4.7775  -1.1403  -1.1402  -1.1208  -1.1208
    -0.0513  -0.0512   0.0164   0.0166   0.5604   0.5605   0.5931   0.5933

          k = 0.0000 0.2439 0.0000 ( 24469 PWs)   bands (ev):

   -23.9185 -23.9123  -9.4402  -9.3537  -9.2389  -9.1817  -9.1032  -9.0585
    -5.8555  -5.0266  -4.7123  -4.4237  -1.3968  -0.9615  -0.9089  -0.1426
    -0.1213  -0.1103   0.1567   0.2852   0.3799   0.3903   0.6167   0.6906

          k = 0.0000 0.2439 0.3624 ( 24463 PWs)   bands (ev):

   -23.9108 -23.9064  -9.4198  -9.3815  -9.2997  -9.2864  -9.1763  -9.1665
    -5.4370  -4.9132  -4.6543  -4.5643  -1.1735  -1.1485  -0.9525  -0.3682
    -0.3332  -0.1265  -0.1201   0.3552   0.4421   0.4694   0.5806   0.6334

          k = 0.0000 0.2439-0.7248 ( 24470 PWs)   bands (ev):

   -23.9019 -23.9019  -9.6145  -9.6145  -9.2058  -9.2058  -9.1753  -9.1753
    -5.1197  -5.1197  -4.4678  -4.4678  -1.2780  -1.2779  -0.9302  -0.9302
     0.0231   0.0232   0.0566   0.0567   0.4071   0.4073   0.5732   0.5733

          k = 0.0000-0.4877 0.0000 ( 24482 PWs)   bands (ev):

   -23.9154 -23.9154  -9.3579  -9.3579  -9.2635  -9.2635  -9.0807  -9.0807
    -5.3588  -5.3588  -4.7020  -4.7020  -1.0932  -1.0932  -0.4470  -0.4470
    -0.2002  -0.2002   0.2884   0.2884   0.4117   0.4117   0.5437   0.5437

          k = 0.0000-0.4877 0.3624 ( 24460 PWs)   bands (ev):

   -23.9086 -23.9086  -9.4194  -9.4194  -9.2438  -9.2438  -9.2049  -9.2049
    -5.1743  -5.1743  -4.6337  -4.6337  -1.1331  -1.1331  -0.7051  -0.7051
    -0.0952  -0.0952   0.2120   0.2120   0.3358   0.3358   0.5590   0.5590

          k = 0.0000-0.4877-0.7248 ( 24476 PWs)   bands (ev):

   -23.9019 -23.9019  -9.6267  -9.6267  -9.1904  -9.1904  -9.1727  -9.1727
    -5.2498  -5.2498  -4.3263  -4.3263  -1.3710  -1.3710  -0.6902  -0.6902
    -0.0439  -0.0439   0.1354   0.1354   0.2033   0.2033   0.6168   0.6168

          k = 0.2490 0.0000 0.0000 ( 24441 PWs)   bands (ev):

   -23.9185 -23.9123  -9.4307  -9.3645  -9.2293  -9.1977  -9.1032  -9.0585
    -5.8653  -5.1434  -4.4749  -4.4510  -1.5570  -0.7012  -0.6821  -0.5536
    -0.0064   0.0314   0.0814   0.1294   0.2635   0.2910   0.6644   0.7017

          k = 0.2490 0.0000 0.3624 ( 24473 PWs)   bands (ev):

   -23.9108 -23.9064  -9.4112  -9.3921  -9.3281  -9.2627  -9.1920  -9.1544
    -5.3963  -4.8242  -4.6562  -4.6445  -1.3316  -1.0957  -0.9560  -0.4140
    -0.3978  -0.1352   0.0801   0.2251   0.3660   0.4991   0.6737   0.7033

          k = 0.2490 0.0000-0.7248 ( 24502 PWs)   bands (ev):

   -23.9019 -23.9019  -9.6190  -9.6190  -9.2107  -9.2107  -9.1725  -9.1725
    -4.9316  -4.9316  -4.6377  -4.6377  -1.6017  -1.6017  -0.6793  -0.6792
    -0.0562  -0.0561   0.2513   0.2514   0.3721   0.3722   0.6188   0.6189

          k = 0.2490 0.2439 0.0000 ( 24452 PWs)   bands (ev):

   -23.9176 -23.9132  -9.4586  -9.3394  -9.2813  -9.1529  -9.0964  -9.0648
    -5.7251  -5.1109  -4.7090  -4.4771  -1.2775  -0.9362  -0.7160  -0.2527
    -0.1770  -0.1267   0.1564   0.2988   0.3103   0.4017   0.4877   0.6219

          k = 0.2490 0.2439 0.3624 ( 24447 PWs)   bands (ev):

   -23.9102 -23.9070  -9.4132  -9.3746  -9.3643  -9.2431  -9.2024  -9.1478
    -5.3083  -4.8648  -4.7399  -4.6381  -1.2975  -1.0667  -0.9710  -0.4135
    -0.2491  -0.0764   0.0315   0.2551   0.3377   0.4564   0.6026   0.6856

          k = 0.2490 0.2439-0.7248 ( 24470 PWs)   bands (ev):

   -23.9018 -23.9018  -9.6259  -9.6029  -9.2314  -9.1924  -9.1797  -9.1732
    -5.1364  -4.9498  -4.6125  -4.4204  -1.5872  -1.4940  -0.7670  -0.6432
    -0.1039  -0.0999   0.2309   0.3010   0.3820   0.4350   0.5759   0.5920

          k = 0.2490-0.4877 0.0000 ( 24426 PWs)   bands (ev):

   -23.9153 -23.9153  -9.4328  -9.4328  -9.1884  -9.1884  -9.0803  -9.0803
    -5.3684  -5.3684  -4.6824  -4.6824  -1.0039  -1.0039  -0.4618  -0.4618
    -0.2386  -0.2386   0.2244   0.2244   0.4505   0.4505   0.4865   0.4865

          k = 0.2490-0.4877 0.3624 ( 24458 PWs)   bands (ev):

   -23.9086 -23.9086  -9.4074  -9.4074  -9.3054  -9.3054  -9.1624  -9.1624
    -5.0894  -5.0894  -4.7006  -4.7006  -1.2128  -1.2128  -0.6490  -0.6490
    -0.1094  -0.1094   0.2177   0.2177   0.3653   0.3653   0.5739   0.5739

          k = 0.2490-0.4877-0.7248 ( 24472 PWs)   bands (ev):

   -23.9018 -23.9018  -9.6108  -9.6108  -9.2136  -9.2136  -9.1790  -9.1790
    -5.1425  -5.1425  -4.4070  -4.4070  -1.4746  -1.4746  -0.7702  -0.7702
     0.0062   0.0062   0.1363   0.1363   0.4290   0.4290   0.5884   0.5884

          k =-0.4979 0.0000 0.0000 ( 24460 PWs)   bands (ev):

   -23.9153 -23.9153  -9.3364  -9.3364  -9.2926  -9.2926  -9.0807  -9.0807
    -5.4378  -5.4378  -4.5449  -4.5449  -1.1337  -1.1337  -0.3313  -0.3313
     0.0366   0.0366   0.0397   0.0397   0.1303   0.1303   0.5494   0.5494

          k =-0.4979 0.0000 0.3624 ( 24486 PWs)   bands (ev):

   -23.9086 -23.9086  -9.4226  -9.4226  -9.2646  -9.2646  -9.1912  -9.1912
    -5.0512  -5.0512  -4.7105  -4.7105  -1.2575  -1.2575  -0.6968  -0.6968
    -0.1042  -0.1042   0.0795   0.0795   0.4530   0.4530   0.6607   0.6607

          k =-0.4979 0.0000-0.7248 ( 24528 PWs)   bands (ev):

   -23.9018 -23.9018  -9.6354  -9.6354  -9.2000  -9.2000  -9.1673  -9.1673
    -4.9817  -4.9817  -4.5559  -4.5559  -1.8104  -1.8104  -0.3868  -0.3868
    -0.0582  -0.0582   0.0853   0.0853   0.5599   0.5599   0.5695   0.5695

          k =-0.4979 0.2439 0.0000 ( 24420 PWs)   bands (ev):

   -23.9153 -23.9153  -9.4310  -9.4310  -9.1940  -9.1940  -9.0803  -9.0803
    -5.4102  -5.4102  -4.6016  -4.6016  -1.0355  -1.0355  -0.3494  -0.3494
    -0.1737  -0.1737   0.0099   0.0099   0.3647   0.3647   0.5366   0.5366

          k =-0.4979 0.2439 0.3624 ( 24472 PWs)   bands (ev):

   -23.9086 -23.9086  -9.4094  -9.4094  -9.3098  -9.3098  -9.1610  -9.1610
    -5.0104  -5.0104  -4.7562  -4.7562  -1.2640  -1.2640  -0.6805  -0.6805
    -0.0606  -0.0606   0.1192   0.1192   0.4537   0.4537   0.5967   0.5967

          k =-0.4979 0.2439-0.7248 ( 24484 PWs)   bands (ev):

   -23.9018 -23.9018  -9.6156  -9.6156  -9.2165  -9.2165  -9.1778  -9.1778
    -4.9917  -4.9917  -4.5385  -4.5385  -1.7095  -1.7095  -0.6043  -0.6043
    -0.0122  -0.0122   0.1564   0.1564   0.4977   0.4977   0.6441   0.6441

          k =-0.4979-0.4877 0.0000 ( 24360 PWs)   bands (ev):

   -23.9153 -23.9153  -9.4767  -9.4767  -9.1442  -9.1442  -9.0800  -9.0800
    -5.3791  -5.3791  -4.6609  -4.6609  -0.8973  -0.8973  -0.4962  -0.4962
    -0.2731  -0.2731   0.1906   0.1906   0.4002   0.4002   0.4853   0.4853

          k =-0.4979-0.4877 0.3624 ( 24468 PWs)   bands (ev):

   -23.9086 -23.9086  -9.3818  -9.3818  -9.3572  -9.3572  -9.1430  -9.1430
    -4.9463  -4.9463  -4.8251  -4.8251  -1.2542  -1.2542  -0.7229  -0.7229
     0.0640   0.0640   0.2368   0.2368   0.3478   0.3478   0.5218   0.5218

          k =-0.4979-0.4877-0.7248 ( 24464 PWs)   bands (ev):

   -23.9018 -23.9018  -9.5932  -9.5932  -9.2391  -9.2391  -9.1846  -9.1846
    -5.0017  -5.0017  -4.5208  -4.5208  -1.5533  -1.5533  -0.8972  -0.8972
     0.1779   0.1779   0.2615   0.2615   0.3718   0.3718   0.6188   0.6188

     highest occupied level (ev):     0.7599

!    total energy              =    -156.47468793 Ry
     estimated scf accuracy    <          8.5E-13 Ry

     The total energy is the sum of the following terms:
     one-electron contribution =     -23.01586925 Ry
     hartree contribution      =      25.82625645 Ry
     xc contribution           =     -49.12117362 Ry
     ewald contribution        =    -110.16390151 Ry

     convergence has been achieved in  13 iterations

     Forces acting on atoms (cartesian axes, Ry/au):

     atom    1 type  2   force =     0.00000000    0.00000000   -0.00000388
     atom    2 type  2   force =     0.00000000    0.00000000    0.00000388
     atom    3 type  1   force =    -0.00000130    0.00000236   -0.00000033
     atom    4 type  1   force =     0.00000130   -0.00000236   -0.00000033
     atom    5 type  1   force =    -0.00000130   -0.00000236    0.00000033
     atom    6 type  1   force =     0.00000130    0.00000236    0.00000033
     atom    7 type  3   force =     0.00000742    0.00000175    0.00000637
     atom    8 type  3   force =    -0.00000742   -0.00000175    0.00000637
     atom    9 type  3   force =     0.00000742   -0.00000175   -0.00000637
     atom   10 type  3   force =    -0.00000742    0.00000175   -0.00000637
     atom   11 type  3   force =    -0.00000876   -0.00000801   -0.00000358
     atom   12 type  3   force =     0.00000876    0.00000801   -0.00000358
     atom   13 type  3   force =    -0.00000876    0.00000801    0.00000358
     atom   14 type  3   force =     0.00000876   -0.00000801    0.00000358
     atom   15 type  3   force =     0.00000269    0.00000379    0.00000694
     atom   16 type  3   force =    -0.00000269   -0.00000379    0.00000694
     atom   17 type  3   force =     0.00000269   -0.00000379   -0.00000694
     atom   18 type  3   force =    -0.00000269    0.00000379   -0.00000694
     atom   19 type  3   force =     0.00000046   -0.00000259   -0.00000773
     atom   20 type  3   force =    -0.00000046    0.00000259   -0.00000773
     atom   21 type  3   force =     0.00000046    0.00000259    0.00000773
     atom   22 type  3   force =    -0.00000046   -0.00000259    0.00000773

     Total force =     0.000040     Total SCF correction =     0.000000


     Computing stress (Cartesian axis) and pressure

          total   stress  (Ry/bohr**3)                   (kbar)     P=       -2.37
  -0.00001605   0.00000000   0.00000000           -2.36        0.00        0.00
   0.00000000  -0.00001608   0.00000000            0.00       -2.37        0.00
   0.00000000   0.00000000  -0.00001611            0.00        0.00       -2.37


     Writing all to output data dir ./pwscf.save/ :
     XML data file, charge density, pseudopotentials, collected wavefunctions

     init_run     :     18.10s CPU     19.73s WALL (       2 calls)
     electrons    :   6359.63s CPU   6411.81s WALL (      56 calls)
     update_pot   :     12.45s CPU     13.68s WALL (      54 calls)
     forces       :    178.90s CPU    179.91s WALL (      56 calls)
     stress       :   1508.26s CPU   1511.78s WALL (      56 calls)

     Called by init_run:
     wfcinit      :     14.37s CPU     14.50s WALL (       2 calls)
     potinit      :      0.73s CPU      1.24s WALL (       2 calls)
     hinit0       :      1.27s CPU      2.18s WALL (       2 calls)

     Called by electrons:
     c_bands      :   5540.46s CPU   5578.58s WALL (     401 calls)
     sum_band     :    705.12s CPU    712.76s WALL (     401 calls)
     v_of_rho     :     47.61s CPU     50.00s WALL (     405 calls)
     newd         :     70.39s CPU     71.94s WALL (     405 calls)
     mix_rho      :      5.31s CPU      5.70s WALL (     401 calls)

     Called by c_bands:
     init_us_2    :    144.13s CPU    145.73s WALL (   24732 calls)
     cegterg      :   4854.63s CPU   4890.54s WALL (   10827 calls)

     Called by *egterg:
     cdiaghg      :     71.00s CPU     71.46s WALL (   40040 calls)
     h_psi        :   3332.77s CPU   3362.21s WALL (   42956 calls)
     s_psi        :    678.07s CPU    680.78s WALL (   42956 calls)
     g_psi        :     12.12s CPU     12.18s WALL (   32075 calls)

     Called by h_psi:
     h_psi:calbec :    599.45s CPU    602.61s WALL (   42956 calls)
     vloc_psi     :   2039.62s CPU   2063.63s WALL (   42956 calls)
     add_vuspsi   :    682.91s CPU    685.34s WALL (   42956 calls)

     General routines
     calbec       :   1322.36s CPU   1327.33s WALL (   61343 calls)
     fft          :     37.24s CPU     42.06s WALL (    6659 calls)
     ffts         :      2.47s CPU      3.09s WALL (     806 calls)
     fftw         :   2093.58s CPU   2117.78s WALL ( 1809618 calls)
     interpolate  :      3.92s CPU      4.69s WALL (     405 calls)

     Parallel routines

     PWSCF        :      2h14m CPU      2h15m WALL


   This run was terminated on:  17:46:33  11Jul2024            

=------------------------------------------------------------------------------=
   JOB DONE.
=------------------------------------------------------------------------------=
