
     Program PWSCF v.7.3.1 starts on 11Jul2024 at 15:30:42 

     This program is part of the open-source Quantum ESPRESSO suite
     for quantum simulation of materials; please cite
         "P. Giannozzi et al., J. Phys.:Condens. Matter 21 395502 (2009);
         "P. Giannozzi et al., J. Phys.:Condens. Matter 29 465901 (2017);
         "P. Giannozzi et al., J. Chem. Phys. 152 154105 (2020);
          URL http://www.quantum-espresso.org", 
     in publications or presentations arising from this work. More details at
     http://www.quantum-espresso.org/quote

     Parallel version (MPI), running on    24 processors

     MPI processes distributed on     1 nodes
     65102 MiB available memory on the printing compute node when the environment starts

     Waiting for input...
     Reading input from standard input

     Current dimensions of program PWSCF are:
     Max number of different atomic species (ntypx) = 10
     Max number of k-points (npk) =  40000
     Max angular momentum in pseudopotentials (lmaxx) =  4

     R & G space division:  proc/nbgrp/npool/nimage =      24
     Subspace diagonalization in iterative solution of the eigenvalue problem:
     a serial algorithm will be used


     Parallelization info
     --------------------
     sticks:   dense  smooth     PW     G-vecs:    dense   smooth      PW
     Min         446     222     61                23740     8396    1209
     Max         447     223     63                23743     8397    1211
     Sum       10713    5351   1473               569799   201527   29021

     Using Slab Decomposition


     Title: 
     volume variation                                                           


     bravais-lattice index     =            8
     lattice parameter (alat)  =      12.8057  a.u.
     unit-cell volume          =    1491.1840 (a.u.)^3
     number of atoms/cell      =           22
     number of atomic types    =            3
     number of electrons       =        48.00
     number of Kohn-Sham states=           24
     kinetic-energy cutoff     =     100.0000  Ry
     charge density cutoff     =     800.0000  Ry
     scf convergence threshold =      1.0E-10
     mixing beta               =       0.7000
     number of iterations used =            8  plain     mixing
     energy convergence thresh.=      1.0E-05
     force convergence thresh. =      1.0E-05
     press convergence thresh. =      5.0E-01
     Exchange-correlation= PBESOL
                           (   1   4  10   8   0   0   0)
     nstep                     =          100


     celldm(1)=  12.805721  celldm(2)=   1.025571  celldm(3)=   0.692394
     celldm(4)=   0.000000  celldm(5)=   0.000000  celldm(6)=   0.000000

     crystal axes: (cart. coord. in units of alat)
               a(1) = (   1.000000   0.000000   0.000000 )  
               a(2) = (   0.000000   1.025571   0.000000 )  
               a(3) = (   0.000000   0.000000   0.692394 )  

     reciprocal axes: (cart. coord. in units 2 pi/alat)
               b(1) = (  1.000000  0.000000  0.000000 )  
               b(2) = (  0.000000  0.975067  0.000000 )  
               b(3) = (  0.000000  0.000000  1.444264 )  


     PseudoPot. # 1 for B  read from file:
     /home/mehlhorn/pseudos/b_pbesol_v1.4.uspp.F.UPF
     MD5 check sum: 369b69bef2c3aeed4453bd8b804fd6a8
     Pseudo is Ultrasoft + core correction, Zval =  3.0
     Generated by new atomic code, or converted to UPF format
     Using radial grid of  781 points,  4 beta functions with: 
                l(1) =   0
                l(2) =   0
                l(3) =   1
                l(4) =   1
     Q(r) pseudized with  8 coefficients,  rinner =    1.100   1.100   1.100


     PseudoPot. # 2 for Ba read from file:
     /home/mehlhorn/pseudos/Ba.nc.z_10.oncvpsp4.dojo.v4-sp.upf
     MD5 check sum: c10ed334bb677c0554edec7181ce9143
     Pseudo is Norm-conserving + core correction, Zval = 10.0
     Generated using ONCVPSP code by D. R. Hamann
     Using radial grid of 1938 points,  8 beta functions with: 
                l(1) =   0
                l(2) =   0
                l(3) =   1
                l(4) =   1
                l(5) =   2
                l(6) =   2
                l(7) =   3
                l(8) =   3

     PseudoPot. # 3 for H  read from file:
     /home/mehlhorn/pseudos/H_ONCV_PBEsol-1.0.upf
     MD5 check sum: 398ef8f67c0a7342c05c87c5e19ea467
     Pseudo is Norm-conserving, Zval =  1.0
     Generated using ONCVPSP code by D. R. Hamann
     Using radial grid of 1180 points,  2 beta functions with: 
                l(1) =   0
                l(2) =   0

     atomic species   valence    mass     pseudopotential
     B                 3.00    10.81100     B ( 1.00)
     Ba               10.00   137.32700     Ba( 1.00)
     H                 1.00     1.00794     H ( 1.00)

      4 Sym. Ops. (no inversion) found ( 2 have fractional translation)



   Cartesian axes

     site n.     atom                  positions (alat units)
         1        Ba     tau(   1) = (   0.5000000   0.5127855   0.3462657  )
         2        Ba     tau(   2) = (   0.0000000   0.0000000   0.6923255  )
         3        B      tau(   3) = (   0.6102570   0.2453190   0.0000455  )
         4        B      tau(   4) = (   0.3897430   0.7802519   0.0000455  )
         5        B      tau(   5) = (   0.1102570   0.2674665   0.3461516  )
         6        B      tau(   6) = (   0.8897430   0.7581045   0.3461516  )
         7        H      tau(   7) = (   0.4340973   0.2996264   0.0001599  )
         8        H      tau(   8) = (   0.5659027   0.7259445   0.0001599  )
         9        H      tau(   9) = (   0.9340973   0.2131590   0.3460372  )
        10        H      tau(  10) = (   0.0659027   0.8124119   0.3460372  )
        11        H      tau(  11) = (   0.7220603   0.3933629  -0.0000058  )
        12        H      tau(  12) = (   0.2779397   0.6322081  -0.0000058  )
        13        H      tau(  13) = (   0.2220603   0.1194226   0.3462029  )
        14        H      tau(  14) = (   0.7779397   0.9061483   0.3462029  )
        15        H      tau(  15) = (   0.6392499   0.1457279   0.5404125  )
        16        H      tau(  16) = (   0.3607501   0.8798430   0.5404125  )
        17        H      tau(  17) = (   0.1392499   0.3670576   0.4981787  )
        18        H      tau(  18) = (   0.8607501   0.6585133   0.4981787  )
        19        H      tau(  19) = (   0.3605328   0.8798946   0.1519977  )
        20        H      tau(  20) = (   0.6394672   0.1456763   0.1519977  )
        21        H      tau(  21) = (   0.8605328   0.6584617   0.1941994  )
        22        H      tau(  22) = (   0.1394672   0.3671092   0.1941994  )

     number of k points=    27
                       cart. coord. in units 2pi/alat
        k(    1) = (   0.0000000   0.0000000   0.0000000), wk =   0.0312500
        k(    2) = (   0.0000000   0.0000000   0.3610660), wk =   0.0625000
        k(    3) = (   0.0000000   0.0000000  -0.7221320), wk =   0.0312500
        k(    4) = (   0.0000000   0.2437667   0.0000000), wk =   0.0625000
        k(    5) = (   0.0000000   0.2437667   0.3610660), wk =   0.1250000
        k(    6) = (   0.0000000   0.2437667  -0.7221320), wk =   0.0625000
        k(    7) = (   0.0000000  -0.4875333   0.0000000), wk =   0.0312500
        k(    8) = (   0.0000000  -0.4875333   0.3610660), wk =   0.0625000
        k(    9) = (   0.0000000  -0.4875333  -0.7221320), wk =   0.0312500
        k(   10) = (   0.2500000   0.0000000   0.0000000), wk =   0.0625000
        k(   11) = (   0.2500000   0.0000000   0.3610660), wk =   0.1250000
        k(   12) = (   0.2500000   0.0000000  -0.7221320), wk =   0.0625000
        k(   13) = (   0.2500000   0.2437667   0.0000000), wk =   0.1250000
        k(   14) = (   0.2500000   0.2437667   0.3610660), wk =   0.2500000
        k(   15) = (   0.2500000   0.2437667  -0.7221320), wk =   0.1250000
        k(   16) = (   0.2500000  -0.4875333   0.0000000), wk =   0.0625000
        k(   17) = (   0.2500000  -0.4875333   0.3610660), wk =   0.1250000
        k(   18) = (   0.2500000  -0.4875333  -0.7221320), wk =   0.0625000
        k(   19) = (  -0.5000000   0.0000000   0.0000000), wk =   0.0312500
        k(   20) = (  -0.5000000   0.0000000   0.3610660), wk =   0.0625000
        k(   21) = (  -0.5000000   0.0000000  -0.7221320), wk =   0.0312500
        k(   22) = (  -0.5000000   0.2437667   0.0000000), wk =   0.0625000
        k(   23) = (  -0.5000000   0.2437667   0.3610660), wk =   0.1250000
        k(   24) = (  -0.5000000   0.2437667  -0.7221320), wk =   0.0625000
        k(   25) = (  -0.5000000  -0.4875333   0.0000000), wk =   0.0312500
        k(   26) = (  -0.5000000  -0.4875333   0.3610660), wk =   0.0625000
        k(   27) = (  -0.5000000  -0.4875333  -0.7221320), wk =   0.0312500

     Dense  grid:   569799 G-vectors     FFT dimensions: ( 120, 120,  80)

     Smooth grid:   201527 G-vectors     FFT dimensions: (  90,  90,  60)

     Estimated max dynamical RAM per process >      93.24 MB

     Estimated total dynamical RAM >       2.19 GB

     Initial potential from superposition of free atoms

     starting charge      47.9682, renormalised to      48.0000
     Starting wfcs are   42 randomized atomic wfcs

     total cpu time spent up to now is       12.2 secs

     Self-consistent Calculation

     iteration #  1     ecut=   100.00 Ry     beta= 0.70
     Davidson diagonalization with overlap
     ethr =  1.00E-02,  avg # of iterations =  2.0

     total cpu time spent up to now is       28.6 secs

     total energy              =    -155.94757698 Ry
     estimated scf accuracy    <       1.98957635 Ry

     iteration #  2     ecut=   100.00 Ry     beta= 0.70
     Davidson diagonalization with overlap
     ethr =  4.14E-03,  avg # of iterations =  2.0

     total cpu time spent up to now is       44.4 secs

     total energy              =    -156.40447672 Ry
     estimated scf accuracy    <       0.36597245 Ry

     iteration #  3     ecut=   100.00 Ry     beta= 0.70
     Davidson diagonalization with overlap
     ethr =  7.62E-04,  avg # of iterations =  2.0

     total cpu time spent up to now is       60.3 secs

     total energy              =    -156.46567007 Ry
     estimated scf accuracy    <       0.00474494 Ry

     iteration #  4     ecut=   100.00 Ry     beta= 0.70
     Davidson diagonalization with overlap
     ethr =  9.89E-06,  avg # of iterations =  5.1

     total cpu time spent up to now is       83.2 secs

     total energy              =    -156.46857340 Ry
     estimated scf accuracy    <       0.00177622 Ry

     iteration #  5     ecut=   100.00 Ry     beta= 0.70
     Davidson diagonalization with overlap
     ethr =  3.70E-06,  avg # of iterations =  2.9

     total cpu time spent up to now is       99.6 secs

     total energy              =    -156.46918192 Ry
     estimated scf accuracy    <       0.00018045 Ry

     iteration #  6     ecut=   100.00 Ry     beta= 0.70
     Davidson diagonalization with overlap
     ethr =  3.76E-07,  avg # of iterations =  4.1

     total cpu time spent up to now is      117.6 secs

     total energy              =    -156.46924669 Ry
     estimated scf accuracy    <       0.00000134 Ry

     iteration #  7     ecut=   100.00 Ry     beta= 0.70
     Davidson diagonalization with overlap
     ethr =  2.79E-09,  avg # of iterations =  8.9

     total cpu time spent up to now is      154.2 secs

     total energy              =    -156.46925735 Ry
     estimated scf accuracy    <       0.00000116 Ry

     iteration #  8     ecut=   100.00 Ry     beta= 0.70
     Davidson diagonalization with overlap
     ethr =  2.41E-09,  avg # of iterations =  2.0

     total cpu time spent up to now is      170.0 secs

     total energy              =    -156.46925759 Ry
     estimated scf accuracy    <       0.00000002 Ry

     iteration #  9     ecut=   100.00 Ry     beta= 0.70
     Davidson diagonalization with overlap
     ethr =  3.50E-11,  avg # of iterations =  5.7

     total cpu time spent up to now is      192.9 secs

     total energy              =    -156.46925761 Ry
     estimated scf accuracy    <          2.9E-09 Ry

     iteration # 10     ecut=   100.00 Ry     beta= 0.70
     Davidson diagonalization with overlap
     ethr =  6.13E-12,  avg # of iterations =  2.8

     total cpu time spent up to now is      210.7 secs

     total energy              =    -156.46925761 Ry
     estimated scf accuracy    <          4.9E-10 Ry

     iteration # 11     ecut=   100.00 Ry     beta= 0.70
     Davidson diagonalization with overlap
     ethr =  1.02E-12,  avg # of iterations =  4.0

     total cpu time spent up to now is      228.5 secs

     End of self-consistent calculation

          k = 0.0000 0.0000 0.0000 ( 25185 PWs)   bands (ev):

   -24.2139 -24.2065  -9.6919  -9.6174  -9.4496  -9.4169  -9.3846  -9.3298
    -6.1059  -5.1760  -4.5824  -4.4213  -1.8354  -0.9302  -0.9150  -0.5276
    -0.1661  -0.1638  -0.1340   0.0116   0.1646   0.5618   0.5864   0.6270

          k = 0.0000 0.0000 0.3611 ( 25172 PWs)   bands (ev):

   -24.2073 -24.2021  -9.6090  -9.6049  -9.5816  -9.5591  -9.4345  -9.4167
    -5.6448  -4.9481  -4.7288  -4.6227  -1.4801  -1.2272  -0.7675  -0.7056
    -0.5755  -0.4672  -0.1105   0.1675   0.3757   0.3974   0.4668   0.6172

          k = 0.0000 0.0000-0.7221 ( 25204 PWs)   bands (ev):

   -24.1992 -24.1992  -9.7978  -9.7976  -9.4834  -9.4834  -9.4448  -9.4448
    -4.9661  -4.9655  -4.8534  -4.8529  -1.2377  -1.2373  -1.2212  -1.2196
    -0.1731  -0.1726  -0.1374  -0.1355   0.4283   0.4285   0.4475   0.4481

          k = 0.0000 0.2438 0.0000 ( 25154 PWs)   bands (ev):

   -24.2128 -24.2076  -9.6659  -9.5910  -9.4940  -9.4470  -9.3764  -9.3377
    -5.9201  -5.0947  -4.8504  -4.5401  -1.4902  -1.0891  -1.0134  -0.2621
    -0.2617  -0.2256   0.0517   0.1631   0.2519   0.2521   0.4787   0.5582

          k = 0.0000 0.2438 0.3611 ( 25186 PWs)   bands (ev):

   -24.2066 -24.2029  -9.6458  -9.6092  -9.5439  -9.5353  -9.4415  -9.4353
    -5.5403  -5.0166  -4.7746  -4.6644  -1.2928  -1.2514  -1.0384  -0.4948
    -0.4493  -0.2541  -0.2464   0.2165   0.3035   0.3392   0.4449   0.5027

          k = 0.0000 0.2438-0.7221 ( 25192 PWs)   bands (ev):

   -24.1992 -24.1992  -9.8100  -9.8099  -9.4678  -9.4678  -9.4440  -9.4440
    -5.2010  -5.2010  -4.6102  -4.6102  -1.3450  -1.3443  -1.0604  -1.0598
    -0.1099  -0.1097  -0.0899  -0.0884   0.2676   0.2676   0.4422   0.4425

          k = 0.0000-0.4875 0.0000 ( 25178 PWs)   bands (ev):

   -24.2102 -24.2102  -9.5940  -9.5940  -9.5157  -9.5157  -9.3569  -9.3569
    -5.4488  -5.4488  -4.8051  -4.8051  -1.2051  -1.2051  -0.5618  -0.5618
    -0.3314  -0.3314   0.1671   0.1671   0.2842   0.2842   0.4168   0.4168

          k = 0.0000-0.4875 0.3611 ( 25188 PWs)   bands (ev):

   -24.2047 -24.2047  -9.6438  -9.6438  -9.4984  -9.4984  -9.4658  -9.4658
    -5.2781  -5.2781  -4.7444  -4.7444  -1.2327  -1.2327  -0.8189  -0.8189
    -0.2180  -0.2180   0.0597   0.0597   0.2190   0.2190   0.4242   0.4242

          k = 0.0000-0.4875-0.7221 ( 25228 PWs)   bands (ev):

   -24.1992 -24.1992  -9.8211  -9.8211  -9.4554  -9.4554  -9.4410  -9.4410
    -5.3163  -5.3163  -4.4870  -4.4870  -1.4301  -1.4301  -0.8357  -0.8357
    -0.1758  -0.1758  -0.0122  -0.0122   0.0823   0.0823   0.4786   0.4786

          k = 0.2500 0.0000 0.0000 ( 25189 PWs)   bands (ev):

   -24.2128 -24.2076  -9.6582  -9.6004  -9.4864  -9.4602  -9.3764  -9.3377
    -5.9280  -5.2213  -4.6134  -4.5643  -1.6502  -0.8194  -0.8086  -0.6562
    -0.1433  -0.1008  -0.0347   0.0329   0.1268   0.1519   0.5317   0.5738

          k = 0.2500 0.0000 0.3611 ( 25171 PWs)   bands (ev):

   -24.2065 -24.2028  -9.6371  -9.6197  -9.5696  -9.5138  -9.4558  -9.4243
    -5.5029  -4.9444  -4.7554  -4.7456  -1.4494  -1.2012  -1.0539  -0.5462
    -0.5121  -0.2655  -0.0321   0.1011   0.2257   0.3596   0.5475   0.5684

          k = 0.2500 0.0000-0.7221 ( 25180 PWs)   bands (ev):

   -24.1992 -24.1992  -9.8138  -9.8137  -9.4722  -9.4721  -9.4416  -9.4416
    -5.0091  -5.0087  -4.7827  -4.7823  -1.6891  -1.6886  -0.8043  -0.8038
    -0.1880  -0.1877   0.1126   0.1141   0.2437   0.2439   0.4838   0.4841

          k = 0.2500 0.2438 0.0000 ( 25160 PWs)   bands (ev):

   -24.2120 -24.2083  -9.6819  -9.5787  -9.5306  -9.4225  -9.3705  -9.3431
    -5.7899  -5.1836  -4.8341  -4.6070  -1.3712  -1.0514  -0.8235  -0.3732
    -0.3022  -0.2590   0.0379   0.1728   0.1985   0.2647   0.3483   0.4878

          k = 0.2500 0.2438 0.3611 ( 25185 PWs)   bands (ev):

   -24.2060 -24.2034  -9.6383  -9.6043  -9.6017  -9.4974  -9.4636  -9.4192
    -5.4149  -4.9698  -4.8551  -4.7414  -1.4088  -1.1634  -1.0799  -0.5364
    -0.3669  -0.2012  -0.0952   0.1148   0.2133   0.3249   0.4674   0.5485

          k = 0.2500 0.2438-0.7221 ( 25180 PWs)   bands (ev):

   -24.1992 -24.1992  -9.8202  -9.7996  -9.4895  -9.4565  -9.4479  -9.4422
    -5.2040  -5.0477  -4.7381  -4.5783  -1.6650  -1.5931  -0.8651  -0.7815
    -0.2311  -0.2310   0.0859   0.1387   0.2715   0.3013   0.4305   0.4695

          k = 0.2500-0.4875 0.0000 ( 25194 PWs)   bands (ev):

   -24.2102 -24.2102  -9.6592  -9.6592  -9.4519  -9.4519  -9.3566  -9.3566
    -5.4376  -5.4376  -4.8097  -4.8097  -1.1054  -1.1054  -0.5736  -0.5736
    -0.3657  -0.3657   0.1006   0.1006   0.3180   0.3180   0.3514   0.3514

          k = 0.2500-0.4875 0.3611 ( 25198 PWs)   bands (ev):

   -24.2047 -24.2047  -9.6345  -9.6345  -9.5489  -9.5489  -9.4308  -9.4308
    -5.1937  -5.1937  -4.8127  -4.8127  -1.3152  -1.3152  -0.7606  -0.7606
    -0.2281  -0.2281   0.0859   0.0859   0.2225   0.2225   0.4411   0.4411

          k = 0.2500-0.4875-0.7221 ( 25224 PWs)   bands (ev):

   -24.1992 -24.1992  -9.8069  -9.8069  -9.4746  -9.4746  -9.4470  -9.4470
    -5.2187  -5.2187  -4.5578  -4.5578  -1.5597  -1.5597  -0.8884  -0.8884
    -0.1237  -0.1237  -0.0014  -0.0014   0.2851   0.2851   0.4571   0.4571

          k =-0.5000 0.0000 0.0000 ( 25108 PWs)   bands (ev):

   -24.2102 -24.2102  -9.5766  -9.5766  -9.5403  -9.5403  -9.3569  -9.3569
    -5.5198  -5.5198  -4.6608  -4.6608  -1.2395  -1.2395  -0.4598  -0.4598
    -0.1063  -0.1063  -0.0775  -0.0775   0.0162   0.0162   0.4296   0.4296

          k =-0.5000 0.0000 0.3611 ( 25208 PWs)   bands (ev):

   -24.2047 -24.2047  -9.6463  -9.6463  -9.5171  -9.5171  -9.4539  -9.4539
    -5.1682  -5.1682  -4.8080  -4.8080  -1.3676  -1.3676  -0.8160  -0.8160
    -0.2296  -0.2296  -0.0433  -0.0433   0.3226   0.3226   0.5322   0.5322

          k =-0.5000 0.0000-0.7221 ( 25212 PWs)   bands (ev):

   -24.1992 -24.1992  -9.8287  -9.8287  -9.4635  -9.4635  -9.4369  -9.4369
    -5.0373  -5.0373  -4.7247  -4.7247  -1.8945  -1.8945  -0.5342  -0.5342
    -0.1979  -0.1979  -0.0261  -0.0261   0.4191   0.4191   0.4521   0.4521

          k =-0.5000 0.2438 0.0000 ( 25164 PWs)   bands (ev):

   -24.2101 -24.2101  -9.6580  -9.6580  -9.4566  -9.4566  -9.3566  -9.3566
    -5.4780  -5.4780  -4.7328  -4.7328  -1.1329  -1.1329  -0.4661  -0.4661
    -0.3010  -0.3010  -0.1148  -0.1148   0.2316   0.2316   0.4067   0.4067

          k =-0.5000 0.2438 0.3611 ( 25170 PWs)   bands (ev):

   -24.2047 -24.2047  -9.6361  -9.6361  -9.5531  -9.5531  -9.4297  -9.4297
    -5.1227  -5.1227  -4.8604  -4.8604  -1.3708  -1.3708  -0.7930  -0.7930
    -0.1941  -0.1941   0.0043   0.0043   0.3153   0.3153   0.4648   0.4648

          k =-0.5000 0.2438-0.7221 ( 25176 PWs)   bands (ev):

   -24.1992 -24.1992  -9.8110  -9.8110  -9.4770  -9.4770  -9.4463  -9.4463
    -5.0662  -5.0662  -4.6895  -4.6895  -1.7998  -1.7998  -0.7304  -0.7304
    -0.1536  -0.1536   0.0384   0.0384   0.3696   0.3696   0.5031   0.5031

          k =-0.5000-0.4875 0.0000 ( 25220 PWs)   bands (ev):

   -24.2101 -24.2101  -9.6975  -9.6975  -9.4149  -9.4149  -9.3563  -9.3563
    -5.4279  -5.4279  -4.8121  -4.8121  -0.9776  -0.9776  -0.6184  -0.6184
    -0.3969  -0.3969   0.0770   0.0770   0.2468   0.2468   0.3486   0.3486

          k =-0.5000-0.4875 0.3611 ( 25184 PWs)   bands (ev):

   -24.2047 -24.2047  -9.6170  -9.6170  -9.5884  -9.5884  -9.4151  -9.4151
    -5.0434  -5.0434  -4.9464  -4.9464  -1.3557  -1.3557  -0.8368  -0.8368
    -0.0471  -0.0471   0.0946   0.0946   0.2349   0.2349   0.3635   0.3635

          k =-0.5000-0.4875-0.7221 ( 25192 PWs)   bands (ev):

   -24.1992 -24.1992  -9.7910  -9.7910  -9.4963  -9.4963  -9.4522  -9.4522
    -5.0910  -5.0910  -4.6581  -4.6581  -1.6525  -1.6525  -1.0083  -1.0083
     0.0598   0.0598   0.1084   0.1084   0.2524   0.2524   0.4706   0.4706

     highest occupied level (ev):     0.6270

!    total energy              =    -156.46925761 Ry
     estimated scf accuracy    <          3.5E-11 Ry

     The total energy is the sum of the following terms:
     one-electron contribution =     -23.85386392 Ry
     hartree contribution      =      25.82373977 Ry
     xc contribution           =     -48.92231286 Ry
     ewald contribution        =    -109.51682061 Ry

     convergence has been achieved in  11 iterations

     Forces acting on atoms (cartesian axes, Ry/au):

     atom    1 type  2   force =     0.00000000    0.00000000    0.00001089
     atom    2 type  2   force =     0.00000000    0.00000000   -0.00001089
     atom    3 type  1   force =     0.00026186    0.00131220   -0.00001429
     atom    4 type  1   force =    -0.00026186   -0.00131220   -0.00001429
     atom    5 type  1   force =     0.00026186   -0.00131220    0.00001429
     atom    6 type  1   force =    -0.00026186    0.00131220    0.00001429
     atom    7 type  3   force =     0.01147200   -0.00291511   -0.00001985
     atom    8 type  3   force =    -0.01147200    0.00291511   -0.00001985
     atom    9 type  3   force =     0.01147200    0.00291511    0.00001985
     atom   10 type  3   force =    -0.01147200   -0.00291511    0.00001985
     atom   11 type  3   force =    -0.00758222   -0.00916967    0.00000751
     atom   12 type  3   force =     0.00758222    0.00916967    0.00000751
     atom   13 type  3   force =    -0.00758222    0.00916967   -0.00000751
     atom   14 type  3   force =     0.00758222   -0.00916967   -0.00000751
     atom   15 type  3   force =    -0.00140352    0.00674017    0.01023859
     atom   16 type  3   force =     0.00140352   -0.00674017    0.01023859
     atom   17 type  3   force =    -0.00140352   -0.00674017   -0.01023859
     atom   18 type  3   force =     0.00140352    0.00674017   -0.01023859
     atom   19 type  3   force =     0.00145894   -0.00676007   -0.01024491
     atom   20 type  3   force =    -0.00145894    0.00676007   -0.01024491
     atom   21 type  3   force =     0.00145894    0.00676007    0.01024491
     atom   22 type  3   force =    -0.00145894   -0.00676007    0.01024491

     Total force =     0.048517     Total SCF correction =     0.000003


     Computing stress (Cartesian axis) and pressure

          total   stress  (Ry/bohr**3)                   (kbar)     P=      -24.92
  -0.00015773   0.00000000   0.00000000          -23.20        0.00        0.00
   0.00000000  -0.00016090   0.00000000            0.00      -23.67        0.00
   0.00000000   0.00000000  -0.00018960            0.00        0.00      -27.89

     Volume is kept fixed: isostatic pressure set to zero

     BFGS Geometry Optimization
     Energy error            =      0.0E+00 Ry
     Gradient error          =      1.1E-02 Ry/Bohr
     Cell gradient error     =      3.0E+00 kbar

     number of scf cycles    =   1
     number of bfgs steps    =   0

     enthalpy           new  =    -156.4692576131 Ry

     new trust radius        =       0.0123606261 bohr
ibrav =      8
 celldm(1) =     12.80946058
 celldm(2) =      1.02548981
 celldm(3) =      0.69184268
Input lattice vectors:
     1.00029201     0.00000000     0.00000000
     0.00000000     1.02578926     0.00000000
     0.00000000     0.00000000     0.69204470
New lattice vectors in INITIAL alat:
     1.00029201     0.00000000     0.00000000
     0.00000000     1.02578926     0.00000000
     0.00000000     0.00000000     0.69204470
New lattice vectors in NEW alat (for information only):
     1.00000000     0.00000000     0.00000000
     0.00000000     1.02548981     0.00000000
     0.00000000     0.00000000     0.69184268
Discrepancy in bohr =     0.000000    0.000000    0.000000
     new conv_thr            =            1.0E-10 Ry

     new unit-cell volume =   1491.18395 a.u.^3 (   220.97066 Ang^3 )
     density =      2.51011 g/cm^3

CELL_PARAMETERS (alat= 12.80572119)
   1.000292010   0.000000000   0.000000000
   0.000000000   1.025789260   0.000000000
   0.000000000   0.000000000   0.692044702

ATOMIC_POSITIONS (crystal)
Ba               0.5000000000        0.5000000000        0.5001003942
Ba               0.0000000000        0.0000000000        0.9998996058
B                0.6102774648        0.2393022949        0.0000640450
B                0.3897225352        0.7606977051        0.0000640450
B                0.1102774648        0.2606977051        0.4999359550
B                0.8897225352        0.7393022949        0.4999359550
H                0.4349931017        0.2919337638        0.0002286939
H                0.5650068983        0.7080662362        0.0002286939
H                0.9349931017        0.2080662362        0.4997713061
H                0.0650068983        0.7919337638        0.4997713061
H                0.7214681719        0.3828568026       -0.0000075241
H                0.2785318281        0.6171431974       -0.0000075241
H                0.2214681719        0.1171431974        0.5000075241
H                0.7785318281        0.8828568026        0.5000075241
H                0.6391403237        0.1426076122        0.7816531502
H                0.3608596763        0.8573923878        0.7816531502
H                0.1391403237        0.3573923878        0.7183468498
H                0.8608596763        0.6426076122        0.7183468498
H                0.3606467597        0.8574411828        0.2183693999
H                0.6393532403        0.1425588172        0.2183693999
H                0.8606467597        0.6425588172        0.2816306001
H                0.1393532403        0.3574411828        0.2816306001



     Writing config-only to output data dir ./pwscf.save/ :
     XML data file
     NEW-OLD atomic charge density approx. for the potential

     total cpu time spent up to now is      260.4 secs

     Self-consistent Calculation

     iteration #  1     ecut=   100.00 Ry     beta= 0.70
     Davidson diagonalization with overlap
     ethr =  1.00E-06,  avg # of iterations =  4.0

     total cpu time spent up to now is      282.9 secs

     total energy              =    -156.47101666 Ry
     estimated scf accuracy    <       0.00056793 Ry

     iteration #  2     ecut=   100.00 Ry     beta= 0.70
     Davidson diagonalization with overlap
     ethr =  1.18E-06,  avg # of iterations =  2.0

     total cpu time spent up to now is      299.7 secs

     total energy              =    -156.47118103 Ry
     estimated scf accuracy    <       0.00012771 Ry

     iteration #  3     ecut=   100.00 Ry     beta= 0.70
     Davidson diagonalization with overlap
     ethr =  2.66E-07,  avg # of iterations =  2.0

     total cpu time spent up to now is      316.4 secs

     total energy              =    -156.47119841 Ry
     estimated scf accuracy    <       0.00000159 Ry

     iteration #  4     ecut=   100.00 Ry     beta= 0.70
     Davidson diagonalization with overlap
     ethr =  3.32E-09,  avg # of iterations =  3.0

     total cpu time spent up to now is      336.7 secs

     total energy              =    -156.47119927 Ry
     estimated scf accuracy    <       0.00000116 Ry

     iteration #  5     ecut=   100.00 Ry     beta= 0.70
     Davidson diagonalization with overlap
     ethr =  2.42E-09,  avg # of iterations =  2.0

     total cpu time spent up to now is      353.5 secs

     total energy              =    -156.47119937 Ry
     estimated scf accuracy    <       0.00000006 Ry

     iteration #  6     ecut=   100.00 Ry     beta= 0.70
     Davidson diagonalization with overlap
     ethr =  1.31E-10,  avg # of iterations =  3.4

     total cpu time spent up to now is      372.3 secs

     total energy              =    -156.47119940 Ry
     estimated scf accuracy    <       0.00000002 Ry

     iteration #  7     ecut=   100.00 Ry     beta= 0.70
     Davidson diagonalization with overlap
     ethr =  3.55E-11,  avg # of iterations =  2.9

     total cpu time spent up to now is      389.7 secs

     total energy              =    -156.47119941 Ry
     estimated scf accuracy    <          1.7E-10 Ry

     iteration #  8     ecut=   100.00 Ry     beta= 0.70
     Davidson diagonalization with overlap
     ethr =  3.59E-13,  avg # of iterations =  8.0

     total cpu time spent up to now is      424.2 secs

     End of self-consistent calculation

          k = 0.0000 0.0000 0.0000 ( 25185 PWs)   bands (ev):

   -24.2250 -24.2176  -9.7033  -9.6281  -9.4602  -9.4272  -9.3946  -9.3400
    -6.1277  -5.2111  -4.6160  -4.4570  -1.8348  -0.9437  -0.9213  -0.5484
    -0.1836  -0.1716  -0.1463  -0.0055   0.1495   0.5375   0.5620   0.6009

          k = 0.0000 0.0000 0.3612 ( 25172 PWs)   bands (ev):

   -24.2184 -24.2132  -9.6198  -9.6160  -9.5928  -9.5695  -9.4449  -9.4270
    -5.6679  -4.9819  -4.7637  -4.6593  -1.4779  -1.2297  -0.7703  -0.7199
    -0.5883  -0.4807  -0.1281   0.1464   0.3532   0.3739   0.4458   0.5926

          k = 0.0000 0.0000-0.7225 ( 25204 PWs)   bands (ev):

   -24.2103 -24.2103  -9.8098  -9.8096  -9.4935  -9.4935  -9.4551  -9.4551
    -4.9949  -4.9944  -4.8901  -4.8896  -1.2383  -1.2378  -1.2209  -1.2194
    -0.1921  -0.1916  -0.1547  -0.1528   0.4058   0.4060   0.4237   0.4243

          k = 0.0000 0.2437 0.0000 ( 25154 PWs)   bands (ev):

   -24.2239 -24.2187  -9.6772  -9.6018  -9.5045  -9.4573  -9.3864  -9.3478
    -5.9428  -5.1298  -4.8803  -4.5756  -1.4938  -1.0953  -1.0236  -0.2777
    -0.2751  -0.2473   0.0378   0.1465   0.2306   0.2352   0.4547   0.5343

          k = 0.0000 0.2437 0.3612 ( 25186 PWs)   bands (ev):

   -24.2176 -24.2139  -9.6567  -9.6203  -9.5549  -9.5457  -9.4519  -9.4455
    -5.5647  -5.0495  -4.8082  -4.7002  -1.2930  -1.2535  -1.0435  -0.5057
    -0.4630  -0.2734  -0.2612   0.1955   0.2818   0.3165   0.4229   0.4797

          k = 0.0000 0.2437-0.7225 ( 25192 PWs)   bands (ev):

   -24.2103 -24.2103  -9.8219  -9.8218  -9.4779  -9.4779  -9.4544  -9.4544
    -5.2334  -5.2334  -4.6432  -4.6432  -1.3451  -1.3444  -1.0617  -1.0610
    -0.1286  -0.1285  -0.1084  -0.1068   0.2465   0.2466   0.4184   0.4187

          k = 0.0000-0.4874 0.0000 ( 25178 PWs)   bands (ev):

   -24.2213 -24.2213  -9.6053  -9.6053  -9.5259  -9.5259  -9.3669  -9.3669
    -5.4745  -5.4745  -4.8400  -4.8400  -1.2105  -1.2105  -0.5755  -0.5755
    -0.3454  -0.3454   0.1435   0.1435   0.2670   0.2670   0.3961   0.3961

          k = 0.0000-0.4874 0.3612 ( 25188 PWs)   bands (ev):

   -24.2158 -24.2158  -9.6548  -9.6548  -9.5094  -9.5094  -9.4759  -9.4759
    -5.3063  -5.3063  -4.7787  -4.7787  -1.2344  -1.2344  -0.8269  -0.8269
    -0.2350  -0.2350   0.0422   0.0422   0.1959   0.1959   0.4020   0.4020

          k = 0.0000-0.4874-0.7225 ( 25228 PWs)   bands (ev):

   -24.2103 -24.2103  -9.8330  -9.8330  -9.4654  -9.4654  -9.4514  -9.4514
    -5.3490  -5.3490  -4.5194  -4.5194  -1.4300  -1.4300  -0.8374  -0.8374
    -0.1958  -0.1958  -0.0291  -0.0291   0.0609   0.0609   0.4545   0.4545

          k = 0.2499 0.0000 0.0000 ( 25189 PWs)   bands (ev):

   -24.2239 -24.2187  -9.6695  -9.6110  -9.4970  -9.4705  -9.3864  -9.3478
    -5.9510  -5.2541  -4.6474  -4.5989  -1.6508  -0.8277  -0.8188  -0.6721
    -0.1560  -0.1183  -0.0497   0.0151   0.1100   0.1317   0.5073   0.5477

          k = 0.2499 0.0000 0.3612 ( 25171 PWs)   bands (ev):

   -24.2176 -24.2139  -9.6481  -9.6308  -9.5804  -9.5245  -9.4661  -9.4346
    -5.5272  -4.9770  -4.7904  -4.7811  -1.4465  -1.2067  -1.0549  -0.5592
    -0.5277  -0.2807  -0.0519   0.0815   0.2050   0.3384   0.5229   0.5457

          k = 0.2499 0.0000-0.7225 ( 25180 PWs)   bands (ev):

   -24.2103 -24.2102  -9.8258  -9.8256  -9.4822  -9.4822  -9.4520  -9.4519
    -5.0431  -5.0427  -4.8147  -4.8144  -1.6862  -1.6857  -0.8085  -0.8081
    -0.2066  -0.2062   0.0937   0.0952   0.2227   0.2228   0.4600   0.4604

          k = 0.2499 0.2437 0.0000 ( 25160 PWs)   bands (ev):

   -24.2231 -24.2194  -9.6929  -9.5898  -9.5409  -9.4329  -9.3805  -9.3532
    -5.8141  -5.2161  -4.8658  -4.6408  -1.3760  -1.0593  -0.8347  -0.3875
    -0.3158  -0.2732   0.0178   0.1559   0.1776   0.2470   0.3251   0.4652

          k = 0.2499 0.2437 0.3612 ( 25185 PWs)   bands (ev):

   -24.2171 -24.2145  -9.6493  -9.6152  -9.6123  -9.5084  -9.4737  -9.4295
    -5.4405  -5.0031  -4.8873  -4.7765  -1.4078  -1.1646  -1.0864  -0.5497
    -0.3818  -0.2174  -0.1140   0.0961   0.1919   0.3027   0.4446   0.5259

          k = 0.2499 0.2437-0.7225 ( 25180 PWs)   bands (ev):

   -24.2102 -24.2102  -9.8321  -9.8115  -9.4996  -9.4666  -9.4582  -9.4526
    -5.2375  -5.0808  -4.7709  -4.6105  -1.6622  -1.5901  -0.8705  -0.7857
    -0.2494  -0.2490   0.0680   0.1193   0.2495   0.2792   0.4083   0.4448

          k = 0.2499-0.4874 0.0000 ( 25194 PWs)   bands (ev):

   -24.2213 -24.2213  -9.6701  -9.6701  -9.4624  -9.4624  -9.3666  -9.3666
    -5.4652  -5.4652  -4.8422  -4.8422  -1.1135  -1.1135  -0.5871  -0.5871
    -0.3791  -0.3791   0.0815   0.0815   0.3000   0.3000   0.3290   0.3290

          k = 0.2499-0.4874 0.3612 ( 25198 PWs)   bands (ev):

   -24.2158 -24.2158  -9.6454  -9.6454  -9.5598  -9.5598  -9.4412  -9.4412
    -5.2228  -5.2228  -4.8462  -4.8462  -1.3159  -1.3159  -0.7712  -0.7712
    -0.2438  -0.2438   0.0667   0.0667   0.2012   0.2012   0.4188   0.4188

          k = 0.2499-0.4874-0.7225 ( 25224 PWs)   bands (ev):

   -24.2102 -24.2102  -9.8188  -9.8188  -9.4847  -9.4847  -9.4573  -9.4573
    -5.2519  -5.2519  -4.5903  -4.5903  -1.5569  -1.5569  -0.8937  -0.8937
    -0.1429  -0.1429  -0.0187  -0.0187   0.2629   0.2629   0.4336   0.4336

          k =-0.4999 0.0000 0.0000 ( 25108 PWs)   bands (ev):

   -24.2213 -24.2213  -9.5880  -9.5880  -9.5503  -9.5503  -9.3669  -9.3669
    -5.5466  -5.5466  -4.6956  -4.6956  -1.2430  -1.2430  -0.4730  -0.4730
    -0.1188  -0.1188  -0.0983  -0.0983  -0.0022  -0.0022   0.4050   0.4050

          k =-0.4999 0.0000 0.3612 ( 25208 PWs)   bands (ev):

   -24.2158 -24.2158  -9.6573  -9.6573  -9.5279  -9.5279  -9.4642  -9.4642
    -5.1959  -5.1959  -4.8435  -4.8435  -1.3664  -1.3664  -0.8254  -0.8254
    -0.2472  -0.2472  -0.0622  -0.0622   0.3020   0.3020   0.5083   0.5083

          k =-0.4999 0.0000-0.7225 ( 25212 PWs)   bands (ev):

   -24.2102 -24.2102  -9.8406  -9.8406  -9.4735  -9.4735  -9.4473  -9.4473
    -5.0731  -5.0731  -4.7553  -4.7553  -1.8903  -1.8903  -0.5401  -0.5401
    -0.2164  -0.2164  -0.0454  -0.0454   0.3985   0.3985   0.4277   0.4277

          k =-0.4999 0.2437 0.0000 ( 25164 PWs)   bands (ev):

   -24.2213 -24.2213  -9.6689  -9.6689  -9.4671  -9.4671  -9.3666  -9.3666
    -5.5059  -5.5059  -4.7654  -4.7654  -1.1402  -1.1402  -0.4791  -0.4791
    -0.3143  -0.3143  -0.1334  -0.1334   0.2138   0.2138   0.3830   0.3830

          k =-0.4999 0.2437 0.3612 ( 25170 PWs)   bands (ev):

   -24.2157 -24.2157  -9.6470  -9.6470  -9.5639  -9.5639  -9.4401  -9.4401
    -5.1513  -5.1513  -4.8946  -4.8946  -1.3703  -1.3703  -0.8033  -0.8033
    -0.2114  -0.2114  -0.0146  -0.0146   0.2941   0.2941   0.4424   0.4424

          k =-0.4999 0.2437-0.7225 ( 25176 PWs)   bands (ev):

   -24.2102 -24.2102  -9.8229  -9.8229  -9.4870  -9.4870  -9.4566  -9.4566
    -5.1009  -5.1009  -4.7211  -4.7211  -1.7956  -1.7956  -0.7368  -0.7368
    -0.1714  -0.1714   0.0183   0.0183   0.3480   0.3480   0.4796   0.4796

          k =-0.4999-0.4874 0.0000 ( 25220 PWs)   bands (ev):

   -24.2212 -24.2212  -9.7083  -9.7083  -9.4254  -9.4254  -9.3663  -9.3663
    -5.4574  -5.4574  -4.8422  -4.8422  -0.9912  -0.9912  -0.6275  -0.6275
    -0.4098  -0.4098   0.0576   0.0576   0.2260   0.2260   0.3301   0.3301

          k =-0.4999-0.4874 0.3612 ( 25184 PWs)   bands (ev):

   -24.2157 -24.2157  -9.6275  -9.6275  -9.5995  -9.5995  -9.4254  -9.4254
    -5.0738  -5.0738  -4.9785  -4.9785  -1.3557  -1.3557  -0.8478  -0.8478
    -0.0639  -0.0639   0.0728   0.0728   0.2142   0.2142   0.3438   0.3438

          k =-0.4999-0.4874-0.7225 ( 25192 PWs)   bands (ev):

   -24.2102 -24.2102  -9.8030  -9.8030  -9.5063  -9.5063  -9.4624  -9.4624
    -5.1250  -5.1250  -4.6905  -4.6905  -1.6481  -1.6481  -1.0142  -1.0142
     0.0399   0.0399   0.0866   0.0866   0.2325   0.2325   0.4485   0.4485

     highest occupied level (ev):     0.6009

!    total energy              =    -156.47119941 Ry
     estimated scf accuracy    <          1.7E-11 Ry

     The total energy is the sum of the following terms:
     one-electron contribution =     -24.21280296 Ry
     hartree contribution      =      26.00289036 Ry
     xc contribution           =     -48.96700396 Ry
     ewald contribution        =    -109.29428284 Ry

     convergence has been achieved in   8 iterations

     Forces acting on atoms (cartesian axes, Ry/au):

     atom    1 type  2   force =     0.00000000    0.00000000    0.00000895
     atom    2 type  2   force =     0.00000000    0.00000000   -0.00000895
     atom    3 type  1   force =     0.00034866    0.00144928   -0.00001084
     atom    4 type  1   force =    -0.00034866   -0.00144928   -0.00001084
     atom    5 type  1   force =     0.00034866   -0.00144928    0.00001084
     atom    6 type  1   force =    -0.00034866    0.00144928    0.00001084
     atom    7 type  3   force =     0.00742019   -0.00170933   -0.00001789
     atom    8 type  3   force =    -0.00742019    0.00170933   -0.00001789
     atom    9 type  3   force =     0.00742019    0.00170933    0.00001789
     atom   10 type  3   force =    -0.00742019   -0.00170933    0.00001789
     atom   11 type  3   force =    -0.00491141   -0.00559257    0.00000550
     atom   12 type  3   force =     0.00491141    0.00559257    0.00000550
     atom   13 type  3   force =    -0.00491141    0.00559257   -0.00000550
     atom   14 type  3   force =     0.00491141   -0.00559257   -0.00000550
     atom   15 type  3   force =    -0.00070621    0.00432728    0.00633346
     atom   16 type  3   force =     0.00070621   -0.00432728    0.00633346
     atom   17 type  3   force =    -0.00070621   -0.00432728   -0.00633346
     atom   18 type  3   force =     0.00070621    0.00432728   -0.00633346
     atom   19 type  3   force =     0.00075414   -0.00434469   -0.00634189
     atom   20 type  3   force =    -0.00075414    0.00434469   -0.00634189
     atom   21 type  3   force =     0.00075414    0.00434469    0.00634189
     atom   22 type  3   force =    -0.00075414   -0.00434469    0.00634189

     Total force =     0.030634     Total SCF correction =     0.000002


     Computing stress (Cartesian axis) and pressure

          total   stress  (Ry/bohr**3)                   (kbar)     P=      -19.64
  -0.00012461   0.00000000   0.00000000          -18.33        0.00        0.00
   0.00000000  -0.00012645   0.00000000            0.00      -18.60        0.00
   0.00000000   0.00000000  -0.00014953            0.00        0.00      -22.00

     Volume is kept fixed: isostatic pressure set to zero
     Energy error            =      1.9E-03 Ry
     Gradient error          =      7.4E-03 Ry/Bohr
     Cell gradient error     =      2.4E+00 kbar

     number of scf cycles    =   2
     number of bfgs steps    =   1

     enthalpy           old  =    -156.4692576131 Ry
     enthalpy           new  =    -156.4711994072 Ry

     CASE: enthalpy          _new < enthalpy          _old

     new trust radius        =       0.0185357678 bohr
ibrav =      8
 celldm(1) =     12.81631817
 celldm(2) =      1.02537650
 celldm(3) =      0.69080905
Input lattice vectors:
     1.00082752     0.00000000     0.00000000
     0.00000000     1.02622502     0.00000000
     0.00000000     0.00000000     0.69138071
New lattice vectors in INITIAL alat:
     1.00082752     0.00000000     0.00000000
     0.00000000     1.02622502     0.00000000
     0.00000000     0.00000000     0.69138071
New lattice vectors in NEW alat (for information only):
     1.00000000     0.00000000     0.00000000
     0.00000000     1.02537650     0.00000000
     0.00000000     0.00000000     0.69080905
Discrepancy in bohr =     0.000000    0.000000    0.000000
     new conv_thr            =            1.0E-10 Ry

     new unit-cell volume =   1491.18395 a.u.^3 (   220.97066 Ang^3 )
     density =      2.51011 g/cm^3

CELL_PARAMETERS (alat= 12.80572119)
   1.000827520   0.000000000   0.000000000
   0.000000000   1.026225015   0.000000000
   0.000000000   0.000000000   0.691380713

ATOMIC_POSITIONS (crystal)
Ba               0.5000000000        0.5000000000        0.5001028145
Ba               0.0000000000        0.0000000000        0.9998971855
B                0.6103426591        0.2395666547        0.0000611144
B                0.3896573409        0.7604333453        0.0000611144
B                0.1103426591        0.2604333453        0.4999388856
B                0.8896573409        0.7395666547        0.4999388856
H                0.4363844646        0.2916210865        0.0002238604
H                0.5636155354        0.7083789135        0.0002238604
H                0.9363844646        0.2083789135        0.4997761396
H                0.0636155354        0.7916210865        0.4997761396
H                0.7205472380        0.3818340256       -0.0000060378
H                0.2794527620        0.6181659744       -0.0000060378
H                0.2205472380        0.1181659744        0.5000060378
H                0.7794527620        0.8818340256        0.5000060378
H                0.6390076954        0.1433987620        0.7833674127
H                0.3609923046        0.8566012380        0.7833674127
H                0.1390076954        0.3566012380        0.7166325873
H                0.8609923046        0.6433987620        0.7166325873
H                0.3607883630        0.8566468557        0.2166528610
H                0.6392116370        0.1433531443        0.2166528610
H                0.8607883630        0.6433531443        0.2833471390
H                0.1392116370        0.3566468557        0.2833471390



     Writing config-only to output data dir ./pwscf.save/ :
     XML data file
     NEW-OLD atomic charge density approx. for the potential

     total cpu time spent up to now is      456.1 secs

     Self-consistent Calculation

     iteration #  1     ecut=   100.00 Ry     beta= 0.70
     Davidson diagonalization with overlap
     ethr =  1.00E-06,  avg # of iterations =  4.0

     total cpu time spent up to now is      480.7 secs

     total energy              =    -156.47201642 Ry
     estimated scf accuracy    <       0.00135389 Ry

     iteration #  2     ecut=   100.00 Ry     beta= 0.70
     Davidson diagonalization with overlap
     ethr =  2.82E-06,  avg # of iterations =  2.0

     total cpu time spent up to now is      497.5 secs

     total energy              =    -156.47241599 Ry
     estimated scf accuracy    <       0.00030763 Ry

     iteration #  3     ecut=   100.00 Ry     beta= 0.70
     Davidson diagonalization with overlap
     ethr =  6.41E-07,  avg # of iterations =  2.0

     total cpu time spent up to now is      514.2 secs

     total energy              =    -156.47245586 Ry
     estimated scf accuracy    <       0.00000475 Ry

     iteration #  4     ecut=   100.00 Ry     beta= 0.70
     Davidson diagonalization with overlap
     ethr =  9.89E-09,  avg # of iterations =  3.0

     total cpu time spent up to now is      533.9 secs

     total energy              =    -156.47245824 Ry
     estimated scf accuracy    <       0.00000326 Ry

     iteration #  5     ecut=   100.00 Ry     beta= 0.70
     Davidson diagonalization with overlap
     ethr =  6.80E-09,  avg # of iterations =  2.0

     total cpu time spent up to now is      550.7 secs

     total energy              =    -156.47245853 Ry
     estimated scf accuracy    <       0.00000017 Ry

     iteration #  6     ecut=   100.00 Ry     beta= 0.70
     Davidson diagonalization with overlap
     ethr =  3.51E-10,  avg # of iterations =  3.1

     total cpu time spent up to now is      568.9 secs

     total energy              =    -156.47245861 Ry
     estimated scf accuracy    <       0.00000005 Ry

     iteration #  7     ecut=   100.00 Ry     beta= 0.70
     Davidson diagonalization with overlap
     ethr =  9.69E-11,  avg # of iterations =  2.1

     total cpu time spent up to now is      585.6 secs

     total energy              =    -156.47245861 Ry
     estimated scf accuracy    <          1.4E-09 Ry

     iteration #  8     ecut=   100.00 Ry     beta= 0.70
     Davidson diagonalization with overlap
     ethr =  2.93E-12,  avg # of iterations =  6.1

     total cpu time spent up to now is      613.3 secs

     End of self-consistent calculation

          k = 0.0000 0.0000 0.0000 ( 25185 PWs)   bands (ev):

   -24.2413 -24.2340  -9.7202  -9.6440  -9.4758  -9.4425  -9.4093  -9.3551
    -6.1614  -5.2647  -4.6672  -4.5117  -1.8360  -0.9658  -0.9323  -0.5812
    -0.2074  -0.1876  -0.1612  -0.0287   0.1305   0.5005   0.5222   0.5585

          k = 0.0000 0.0000 0.3616 ( 25172 PWs)   bands (ev):

   -24.2347 -24.2295  -9.6359  -9.6329  -9.6101  -9.5850  -9.4603  -9.4421
    -5.7027  -5.0328  -4.8173  -4.7156  -1.4759  -1.2345  -0.7761  -0.7430
    -0.6065  -0.4991  -0.1539   0.1152   0.3168   0.3377   0.4142   0.5539

          k = 0.0000 0.0000-0.7232 ( 25204 PWs)   bands (ev):

   -24.2265 -24.2265  -9.8285  -9.8284  -9.5083  -9.5082  -9.4704  -9.4704
    -5.0379  -5.0374  -4.9468  -4.9463  -1.2378  -1.2373  -1.2218  -1.2203
    -0.2229  -0.2224  -0.1808  -0.1789   0.3713   0.3714   0.3875   0.3879

          k = 0.0000 0.2436 0.0000 ( 25154 PWs)   bands (ev):

   -24.2402 -24.2351  -9.6940  -9.6180  -9.5201  -9.4726  -9.4012  -9.3629
    -5.9780  -5.1838  -4.9257  -4.6298  -1.5010  -1.1062  -1.0412  -0.2983
    -0.2921  -0.2814   0.0127   0.1245   0.1954   0.2134   0.4181   0.4952

          k = 0.0000 0.2436 0.3616 ( 25186 PWs)   bands (ev):

   -24.2339 -24.2302  -9.6732  -9.6373  -9.5715  -9.5613  -9.4674  -9.4606
    -5.6017  -5.0991  -4.8595  -4.7552  -1.2942  -1.2577  -1.0531  -0.5204
    -0.4832  -0.3028  -0.2830   0.1641   0.2474   0.2811   0.3895   0.4433

          k = 0.0000 0.2436-0.7232 ( 25192 PWs)   bands (ev):

   -24.2265 -24.2265  -9.8405  -9.8404  -9.4926  -9.4926  -9.4697  -9.4697
    -5.2826  -5.2825  -4.6934  -4.6933  -1.3462  -1.3456  -1.0626  -1.0619
    -0.1589  -0.1588  -0.1362  -0.1345   0.2148   0.2148   0.3811   0.3813

          k = 0.0000-0.4872 0.0000 ( 25178 PWs)   bands (ev):

   -24.2376 -24.2376  -9.6222  -9.6222  -9.5410  -9.5410  -9.3819  -9.3819
    -5.5144  -5.5144  -4.8929  -4.8929  -1.2202  -1.2202  -0.5990  -0.5990
    -0.3634  -0.3634   0.1065   0.1065   0.2442   0.2442   0.3617   0.3617

          k = 0.0000-0.4872 0.3616 ( 25188 PWs)   bands (ev):

   -24.2321 -24.2321  -9.6714  -9.6714  -9.5260  -9.5260  -9.4908  -9.4908
    -5.3492  -5.3492  -4.8312  -4.8312  -1.2381  -1.2381  -0.8395  -0.8395
    -0.2599  -0.2599   0.0167   0.0167   0.1591   0.1591   0.3676   0.3676

          k = 0.0000-0.4872-0.7232 ( 25228 PWs)   bands (ev):

   -24.2265 -24.2265  -9.8515  -9.8515  -9.4801  -9.4801  -9.4668  -9.4668
    -5.3986  -5.3986  -4.5687  -4.5687  -1.4310  -1.4310  -0.8384  -0.8384
    -0.2272  -0.2272  -0.0557  -0.0557   0.0288   0.0288   0.4162   0.4162

          k = 0.2498 0.0000 0.0000 ( 25189 PWs)   bands (ev):

   -24.2402 -24.2351  -9.6864  -9.6269  -9.5128  -9.4857  -9.4012  -9.3629
    -5.9866  -5.3045  -4.6992  -4.6518  -1.6539  -0.8414  -0.8367  -0.6977
    -0.1721  -0.1413  -0.0694  -0.0143   0.0882   0.1000   0.4680   0.5053

          k = 0.2498 0.0000 0.3616 ( 25171 PWs)   bands (ev):

   -24.2339 -24.2302  -9.6647  -9.6476  -9.5967  -9.5405  -9.4814  -9.4499
    -5.5641  -5.0264  -4.8441  -4.8354  -1.4432  -1.2157  -1.0572  -0.5786
    -0.5528  -0.3022  -0.0815   0.0507   0.1747   0.3060   0.4839   0.5102

          k = 0.2498 0.0000-0.7232 ( 25180 PWs)   bands (ev):

   -24.2265 -24.2265  -9.8444  -9.8443  -9.4969  -9.4969  -9.4673  -9.4672
    -5.0950  -5.0947  -4.8629  -4.8626  -1.6818  -1.6814  -0.8147  -0.8143
    -0.2366  -0.2363   0.0649   0.0663   0.1907   0.1908   0.4234   0.4237

          k = 0.2498 0.2436 0.0000 ( 25160 PWs)   bands (ev):

   -24.2395 -24.2358  -9.7094  -9.6065  -9.5560  -9.4484  -9.3954  -9.3683
    -5.8516  -5.2663  -4.9137  -4.6922  -1.3853  -1.0727  -0.8539  -0.4111
    -0.3332  -0.2914  -0.0145   0.1336   0.1438   0.2237   0.2875   0.4287

          k = 0.2498 0.2436 0.3616 ( 25185 PWs)   bands (ev):

   -24.2334 -24.2308  -9.6661  -9.6320  -9.6280  -9.5250  -9.4887  -9.4448
    -5.4793  -5.0534  -4.9368  -4.8303  -1.4070  -1.1673  -1.0972  -0.5696
    -0.4051  -0.2406  -0.1422   0.0671   0.1588   0.2687   0.4097   0.4903

          k = 0.2498 0.2436-0.7232 ( 25180 PWs)   bands (ev):

   -24.2265 -24.2265  -9.8508  -9.8301  -9.5143  -9.4813  -9.4734  -9.4680
    -5.2886  -5.1312  -4.8207  -4.6594  -1.6584  -1.5859  -0.8778  -0.7914
    -0.2785  -0.2780   0.0417   0.0903   0.2135   0.2459   0.3753   0.4049

          k = 0.2498-0.4872 0.0000 ( 25194 PWs)   bands (ev):

   -24.2376 -24.2376  -9.6864  -9.6864  -9.4779  -9.4779  -9.3816  -9.3816
    -5.5081  -5.5081  -4.8914  -4.8914  -1.1272  -1.1272  -0.6104  -0.6104
    -0.3962  -0.3962   0.0503   0.0503   0.2762   0.2762   0.2930   0.2930

          k = 0.2498-0.4872 0.3616 ( 25198 PWs)   bands (ev):

   -24.2320 -24.2320  -9.6618  -9.6618  -9.5760  -9.5760  -9.4565  -9.4565
    -5.2670  -5.2670  -4.8973  -4.8973  -1.3176  -1.3176  -0.7876  -0.7876
    -0.2671  -0.2671   0.0375   0.0375   0.1676   0.1676   0.3848   0.3848

          k = 0.2498-0.4872-0.7232 ( 25224 PWs)   bands (ev):

   -24.2265 -24.2265  -9.8374  -9.8374  -9.4993  -9.4993  -9.4726  -9.4726
    -5.3024  -5.3024  -4.6397  -4.6397  -1.5535  -1.5535  -0.9006  -0.9006
    -0.1725  -0.1725  -0.0460  -0.0460   0.2291   0.2291   0.3966   0.3966

          k =-0.4996 0.0000 0.0000 ( 25108 PWs)   bands (ev):

   -24.2376 -24.2376  -9.6051  -9.6051  -9.5651  -9.5651  -9.3819  -9.3819
    -5.5880  -5.5880  -4.7484  -4.7484  -1.2507  -1.2507  -0.4936  -0.4936
    -0.1342  -0.1342  -0.1316  -0.1316  -0.0270  -0.0270   0.3648   0.3648

          k =-0.4996 0.0000 0.3616 ( 25208 PWs)   bands (ev):

   -24.2320 -24.2320  -9.6740  -9.6740  -9.5440  -9.5440  -9.4794  -9.4794
    -5.2382  -5.2382  -4.8977  -4.8977  -1.3651  -1.3651  -0.8402  -0.8402
    -0.2745  -0.2745  -0.0905  -0.0905   0.2717   0.2717   0.4703   0.4703

          k =-0.4996 0.0000-0.7232 ( 25212 PWs)   bands (ev):

   -24.2265 -24.2265  -9.8591  -9.8591  -9.4882  -9.4882  -9.4626  -9.4626
    -5.1281  -5.1281  -4.8011  -4.8011  -1.8839  -1.8839  -0.5485  -0.5485
    -0.2463  -0.2463  -0.0747  -0.0747   0.3679   0.3679   0.3886   0.3886

          k =-0.4996 0.2436 0.0000 ( 25164 PWs)   bands (ev):

   -24.2376 -24.2376  -9.6851  -9.6851  -9.4827  -9.4827  -9.3816  -9.3816
    -5.5493  -5.5493  -4.8149  -4.8149  -1.1532  -1.1532  -0.5003  -0.5003
    -0.3311  -0.3311  -0.1634  -0.1634   0.1900   0.1900   0.3444   0.3444

          k =-0.4996 0.2436 0.3616 ( 25170 PWs)   bands (ev):

   -24.2320 -24.2320  -9.6635  -9.6635  -9.5801  -9.5801  -9.4554  -9.4554
    -5.1951  -5.1951  -4.9468  -4.9468  -1.3702  -1.3702  -0.8192  -0.8192
    -0.2388  -0.2388  -0.0423  -0.0423   0.2624   0.2624   0.4070   0.4070

          k =-0.4996 0.2436-0.7232 ( 25176 PWs)   bands (ev):

   -24.2264 -24.2264  -9.8416  -9.8416  -9.5017  -9.5017  -9.4719  -9.4719
    -5.1541  -5.1541  -4.7687  -4.7687  -1.7895  -1.7895  -0.7459  -0.7459
    -0.2002  -0.2002  -0.0114  -0.0114   0.3136   0.3136   0.4438   0.4438

          k =-0.4996-0.4872 0.0000 ( 25220 PWs)   bands (ev):

   -24.2376 -24.2376  -9.7244  -9.7244  -9.4409  -9.4409  -9.3813  -9.3813
    -5.5034  -5.5034  -4.8876  -4.8876  -1.0128  -1.0128  -0.6441  -0.6441
    -0.4261  -0.4261   0.0249   0.0249   0.1937   0.1937   0.3054   0.3054

          k =-0.4996-0.4872 0.3616 ( 25184 PWs)   bands (ev):

   -24.2320 -24.2320  -9.6431  -9.6431  -9.6167  -9.6167  -9.4407  -9.4407
    -5.1205  -5.1205  -5.0273  -5.0273  -1.3565  -1.3565  -0.8645  -0.8645
    -0.0892  -0.0892   0.0389   0.0389   0.1812   0.1812   0.3150   0.3150

          k =-0.4996-0.4872-0.7232 ( 25192 PWs)   bands (ev):

   -24.2264 -24.2264  -9.8217  -9.8217  -9.5210  -9.5210  -9.4776  -9.4776
    -5.1768  -5.1768  -4.7395  -4.7395  -1.6422  -1.6422  -1.0222  -1.0222
     0.0105   0.0105   0.0523   0.0523   0.1990   0.1990   0.4157   0.4157

     highest occupied level (ev):     0.5585

!    total energy              =    -156.47245862 Ry
     estimated scf accuracy    <          8.2E-11 Ry

     The total energy is the sum of the following terms:
     one-electron contribution =     -24.77701604 Ry
     hartree contribution      =      26.28483973 Ry
     xc contribution           =     -49.03560925 Ry
     ewald contribution        =    -108.94467305 Ry

     convergence has been achieved in   8 iterations

     Forces acting on atoms (cartesian axes, Ry/au):

     atom    1 type  2   force =     0.00000000    0.00000000    0.00000536
     atom    2 type  2   force =     0.00000000    0.00000000   -0.00000536
     atom    3 type  1   force =     0.00036519    0.00093240   -0.00000861
     atom    4 type  1   force =    -0.00036519   -0.00093240   -0.00000861
     atom    5 type  1   force =     0.00036519   -0.00093240    0.00000861
     atom    6 type  1   force =    -0.00036519    0.00093240    0.00000861
     atom    7 type  3   force =     0.00103072    0.00020507   -0.00001517
     atom    8 type  3   force =    -0.00103072   -0.00020507   -0.00001517
     atom    9 type  3   force =     0.00103072   -0.00020507    0.00001517
     atom   10 type  3   force =    -0.00103072    0.00020507    0.00001517
     atom   11 type  3   force =    -0.00048980    0.00030841    0.00000233
     atom   12 type  3   force =     0.00048980   -0.00030841    0.00000233
     atom   13 type  3   force =    -0.00048980   -0.00030841   -0.00000233
     atom   14 type  3   force =     0.00048980    0.00030841   -0.00000233
     atom   15 type  3   force =     0.00035271    0.00072994    0.00036999
     atom   16 type  3   force =    -0.00035271   -0.00072994    0.00036999
     atom   17 type  3   force =     0.00035271   -0.00072994   -0.00036999
     atom   18 type  3   force =    -0.00035271    0.00072994   -0.00036999
     atom   19 type  3   force =    -0.00031762   -0.00074077   -0.00037781
     atom   20 type  3   force =     0.00031762    0.00074077   -0.00037781
     atom   21 type  3   force =    -0.00031762    0.00074077    0.00037781
     atom   22 type  3   force =     0.00031762   -0.00074077    0.00037781

     Total force =     0.004014     Total SCF correction =     0.000004


     Computing stress (Cartesian axis) and pressure

          total   stress  (Ry/bohr**3)                   (kbar)     P=      -11.42
  -0.00007209   0.00000000   0.00000000          -10.61        0.00        0.00
   0.00000000  -0.00007257   0.00000000            0.00      -10.68        0.00
   0.00000000   0.00000000  -0.00008822            0.00        0.00      -12.98

     Volume is kept fixed: isostatic pressure set to zero
     Energy error            =      1.3E-03 Ry
     Gradient error          =      1.0E-03 Ry/Bohr
     Cell gradient error     =      1.6E+00 kbar

     number of scf cycles    =   3
     number of bfgs steps    =   2

     enthalpy           old  =    -156.4711994072 Ry
     enthalpy           new  =    -156.4724586167 Ry

     CASE: enthalpy          _new < enthalpy          _old

     new trust radius        =       0.0027621744 bohr
ibrav =      8
 celldm(1) =     12.81874045
 celldm(2) =      1.02535528
 celldm(3) =      0.69043180
Input lattice vectors:
     1.00101668     0.00000000     0.00000000
     0.00000000     1.02639773     0.00000000
     0.00000000     0.00000000     0.69113375
New lattice vectors in INITIAL alat:
     1.00101668     0.00000000     0.00000000
     0.00000000     1.02639773     0.00000000
     0.00000000     0.00000000     0.69113375
New lattice vectors in NEW alat (for information only):
     1.00000000     0.00000000     0.00000000
     0.00000000     1.02535528     0.00000000
     0.00000000     0.00000000     0.69043180
Discrepancy in bohr =     0.000000    0.000000    0.000000
     new conv_thr            =            1.0E-10 Ry

     new unit-cell volume =   1491.18395 a.u.^3 (   220.97066 Ang^3 )
     density =      2.51011 g/cm^3

CELL_PARAMETERS (alat= 12.80572119)
   1.001016675   0.000000000   0.000000000
   0.000000000   1.026397729   0.000000000
   0.000000000   0.000000000   0.691133749

ATOMIC_POSITIONS (crystal)
Ba               0.5000000000        0.5000000000        0.5001036430
Ba               0.0000000000        0.0000000000        0.9998963570
B                0.6103784360        0.2396625170        0.0000598463
B                0.3896215640        0.7603374830        0.0000598463
B                0.1103784360        0.2603374830        0.4999401537
B                0.8896215640        0.7396625170        0.4999401537
H                0.4365680469        0.2916169064        0.0002216529
H                0.5634319531        0.7083830936        0.0002216529
H                0.9365680469        0.2083830936        0.4997783471
H                0.0634319531        0.7916169064        0.4997783471
H                0.7204423377        0.3817900865       -0.0000056482
H                0.2795576623        0.6182099135       -0.0000056482
H                0.2204423377        0.1182099135        0.5000056482
H                0.7795576623        0.8817900865        0.5000056482
H                0.6390289177        0.1435140114        0.7835304252
H                0.3609710823        0.8564859886        0.7835304252
H                0.1390289177        0.3564859886        0.7164695748
H                0.8609710823        0.6435140114        0.7164695748
H                0.3607707676        0.8565304837        0.2164887268
H                0.6392292324        0.1434695163        0.2164887268
H                0.8607707676        0.6434695163        0.2835112732
H                0.1392292324        0.3565304837        0.2835112732



     Writing config-only to output data dir ./pwscf.save/ :
     XML data file
     NEW-OLD atomic charge density approx. for the potential

     total cpu time spent up to now is      645.3 secs

     Self-consistent Calculation

     iteration #  1     ecut=   100.00 Ry     beta= 0.70
     Davidson diagonalization with overlap
     ethr =  1.00E-06,  avg # of iterations =  2.0

     Threshold (ethr) on eigenvalues was too large:
     Diagonalizing with lowered threshold

     Davidson diagonalization with overlap
     ethr =  2.36E-08,  avg # of iterations =  2.0

     total cpu time spent up to now is      677.7 secs

     total energy              =    -156.47248130 Ry
     estimated scf accuracy    <       0.00001543 Ry

     iteration #  2     ecut=   100.00 Ry     beta= 0.70
     Davidson diagonalization with overlap
     ethr =  3.21E-08,  avg # of iterations =  2.0

     total cpu time spent up to now is      694.4 secs

     total energy              =    -156.47248563 Ry
     estimated scf accuracy    <       0.00000297 Ry

     iteration #  3     ecut=   100.00 Ry     beta= 0.70
     Davidson diagonalization with overlap
     ethr =  6.20E-09,  avg # of iterations =  2.0

     total cpu time spent up to now is      711.0 secs

     total energy              =    -156.47248603 Ry
     estimated scf accuracy    <       0.00000005 Ry

     iteration #  4     ecut=   100.00 Ry     beta= 0.70
     Davidson diagonalization with overlap
     ethr =  9.97E-11,  avg # of iterations =  3.0

     total cpu time spent up to now is      731.2 secs

     total energy              =    -156.47248605 Ry
     estimated scf accuracy    <       0.00000002 Ry

     iteration #  5     ecut=   100.00 Ry     beta= 0.70
     Davidson diagonalization with overlap
     ethr =  4.73E-11,  avg # of iterations =  2.0

     total cpu time spent up to now is      748.1 secs

     total energy              =    -156.47248605 Ry
     estimated scf accuracy    <          1.9E-10 Ry

     iteration #  6     ecut=   100.00 Ry     beta= 0.70
     Davidson diagonalization with overlap
     ethr =  3.97E-13,  avg # of iterations =  7.8

     total cpu time spent up to now is      782.7 secs

     total energy              =    -156.47248605 Ry
     estimated scf accuracy    <          1.9E-10 Ry

     iteration #  7     ecut=   100.00 Ry     beta= 0.70
     Davidson diagonalization with overlap
     ethr =  3.97E-13,  avg # of iterations =  2.0

     total cpu time spent up to now is      799.3 secs

     End of self-consistent calculation

          k = 0.0000 0.0000 0.0000 ( 25185 PWs)   bands (ev):

   -24.2425 -24.2352  -9.7218  -9.6454  -9.4772  -9.4437  -9.4103  -9.3563
    -6.1652  -5.2705  -4.6727  -4.5178  -1.8375  -0.9687  -0.9341  -0.5861
    -0.2086  -0.1913  -0.1607  -0.0301   0.1304   0.4958   0.5174   0.5519

          k = 0.0000 0.0000 0.3617 ( 25172 PWs)   bands (ev):

   -24.2358 -24.2306  -9.6372  -9.6348  -9.6121  -9.5862  -9.4615  -9.4433
    -5.7060  -5.0378  -4.8234  -4.7221  -1.4763  -1.2356  -0.7776  -0.7459
    -0.6080  -0.5000  -0.1567   0.1121   0.3125   0.3325   0.4108   0.5483

          k = 0.0000 0.0000-0.7234 ( 25204 PWs)   bands (ev):

   -24.2276 -24.2276  -9.8310  -9.8308  -9.5092  -9.5092  -9.4716  -9.4715
    -5.0415  -5.0410  -4.9536  -4.9531  -1.2373  -1.2368  -1.2227  -1.2212
    -0.2265  -0.2260  -0.1837  -0.1818   0.3661   0.3662   0.3833   0.3836

          k = 0.0000 0.2436 0.0000 ( 25154 PWs)   bands (ev):

   -24.2414 -24.2362  -9.6956  -9.6194  -9.5214  -9.4739  -9.4022  -9.3640
    -5.9819  -5.1899  -4.9303  -4.6358  -1.5034  -1.1081  -1.0436  -0.2989
    -0.2920  -0.2864   0.0081   0.1235   0.1897   0.2127   0.4134   0.4903

          k = 0.0000 0.2436 0.3617 ( 25186 PWs)   bands (ev):

   -24.2350 -24.2314  -9.6748  -9.6390  -9.5731  -9.5626  -9.4687  -9.4617
    -5.6053  -5.1041  -4.8652  -4.7614  -1.2950  -1.2587  -1.0548  -0.5213
    -0.4852  -0.3066  -0.2850   0.1607   0.2431   0.2758   0.3860   0.4386

          k = 0.0000 0.2436-0.7234 ( 25192 PWs)   bands (ev):

   -24.2276 -24.2276  -9.8429  -9.8428  -9.4936  -9.4936  -9.4709  -9.4709
    -5.2876  -5.2876  -4.6986  -4.6985  -1.3470  -1.3464  -1.0623  -1.0616
    -0.1627  -0.1626  -0.1394  -0.1377   0.2112   0.2112   0.3757   0.3759

          k = 0.0000-0.4871 0.0000 ( 25178 PWs)   bands (ev):

   -24.2388 -24.2388  -9.6238  -9.6238  -9.5422  -9.5422  -9.3830  -9.3830
    -5.5190  -5.5190  -4.8984  -4.8984  -1.2222  -1.2222  -0.6030  -0.6030
    -0.3635  -0.3635   0.1010   0.1010   0.2432   0.2432   0.3572   0.3572

          k = 0.0000-0.4871 0.3617 ( 25188 PWs)   bands (ev):

   -24.2332 -24.2332  -9.6731  -9.6731  -9.5275  -9.5275  -9.4920  -9.4920
    -5.3535  -5.3535  -4.8369  -4.8369  -1.2390  -1.2390  -0.8412  -0.8412
    -0.2624  -0.2624   0.0144   0.0144   0.1535   0.1535   0.3637   0.3637

          k = 0.0000-0.4871-0.7234 ( 25228 PWs)   bands (ev):

   -24.2276 -24.2276  -9.8538  -9.8538  -9.4811  -9.4811  -9.4680  -9.4680
    -5.4038  -5.4038  -4.5737  -4.5737  -1.4318  -1.4318  -0.8379  -0.8379
    -0.2315  -0.2315  -0.0588  -0.0588   0.0250   0.0250   0.4110   0.4110

          k = 0.2497 0.0000 0.0000 ( 25189 PWs)   bands (ev):

   -24.2414 -24.2362  -9.6879  -9.6283  -9.5142  -9.4869  -9.4022  -9.3640
    -5.9906  -5.3101  -4.7048  -4.6575  -1.6557  -0.8432  -0.8401  -0.7011
    -0.1719  -0.1423  -0.0701  -0.0193   0.0875   0.0963   0.4628   0.4987

          k = 0.2497 0.0000 0.3617 ( 25171 PWs)   bands (ev):

   -24.2350 -24.2314  -9.6663  -9.6493  -9.5982  -9.5419  -9.4826  -9.4511
    -5.5677  -5.0313  -4.8501  -4.8416  -1.4431  -1.2173  -1.0576  -0.5808
    -0.5558  -0.3041  -0.0850   0.0467   0.1719   0.3023   0.4782   0.5060

          k = 0.2497 0.0000-0.7234 ( 25180 PWs)   bands (ev):

   -24.2276 -24.2276  -9.8468  -9.8467  -9.4979  -9.4979  -9.4685  -9.4684
    -5.1008  -5.1004  -4.8677  -4.8674  -1.6814  -1.6810  -0.8154  -0.8151
    -0.2401  -0.2398   0.0614   0.0628   0.1862   0.1862   0.4187   0.4191

          k = 0.2497 0.2436 0.0000 ( 25160 PWs)   bands (ev):

   -24.2406 -24.2370  -9.7108  -9.6081  -9.5571  -9.4497  -9.3964  -9.3694
    -5.8559  -5.2723  -4.9185  -4.6978  -1.3879  -1.0750  -0.8566  -0.4147
    -0.3333  -0.2915  -0.0192   0.1326   0.1385   0.2228   0.2827   0.4234

          k = 0.2497 0.2436 0.3617 ( 25185 PWs)   bands (ev):

   -24.2345 -24.2319  -9.6678  -9.6338  -9.6293  -9.5265  -9.4899  -9.4460
    -5.4832  -5.0585  -4.9422  -4.8364  -1.4071  -1.1678  -1.0991  -0.5719
    -0.4080  -0.2427  -0.1454   0.0640   0.1542   0.2646   0.4055   0.4858

          k = 0.2497 0.2436-0.7234 ( 25180 PWs)   bands (ev):

   -24.2276 -24.2276  -9.8531  -9.8326  -9.5153  -9.4824  -9.4745  -9.4692
    -5.2941  -5.1366  -4.8257  -4.6643  -1.6582  -1.5855  -0.8787  -0.7919
    -0.2824  -0.2815   0.0390   0.0870   0.2079   0.2417   0.3720   0.3990

          k = 0.2497-0.4871 0.0000 ( 25194 PWs)   bands (ev):

   -24.2388 -24.2388  -9.6879  -9.6879  -9.4792  -9.4792  -9.3827  -9.3827
    -5.5132  -5.5132  -4.8964  -4.8964  -1.1298  -1.1298  -0.6141  -0.6141
    -0.3962  -0.3962   0.0457   0.0457   0.2751   0.2751   0.2881   0.2881

          k = 0.2497-0.4871 0.3617 ( 25198 PWs)   bands (ev):

   -24.2332 -24.2332  -9.6634  -9.6634  -9.5775  -9.5775  -9.4577  -9.4577
    -5.2716  -5.2716  -4.9029  -4.9029  -1.3181  -1.3181  -0.7900  -0.7900
    -0.2694  -0.2694   0.0343   0.0343   0.1629   0.1629   0.3810   0.3810

          k = 0.2497-0.4871-0.7234 ( 25224 PWs)   bands (ev):

   -24.2276 -24.2276  -9.8398  -9.8398  -9.5003  -9.5003  -9.4738  -9.4738
    -5.3078  -5.3078  -4.6447  -4.6447  -1.5535  -1.5535  -0.9013  -0.9013
    -0.1764  -0.1764  -0.0492  -0.0492   0.2246   0.2246   0.3919   0.3919

          k =-0.4995 0.0000 0.0000 ( 25108 PWs)   bands (ev):

   -24.2388 -24.2388  -9.6067  -9.6067  -9.5662  -9.5662  -9.3830  -9.3830
    -5.5928  -5.5928  -4.7541  -4.7541  -1.2531  -1.2531  -0.4960  -0.4960
    -0.1361  -0.1361  -0.1338  -0.1338  -0.0283  -0.0283   0.3587   0.3587

          k =-0.4995 0.0000 0.3617 ( 25208 PWs)   bands (ev):

   -24.2332 -24.2332  -9.6757  -9.6757  -9.5454  -9.5454  -9.4807  -9.4807
    -5.2426  -5.2426  -4.9036  -4.9036  -1.3649  -1.3649  -0.8426  -0.8426
    -0.2774  -0.2774  -0.0939  -0.0939   0.2687   0.2687   0.4651   0.4651

          k =-0.4995 0.0000-0.7234 ( 25212 PWs)   bands (ev):

   -24.2276 -24.2276  -9.8615  -9.8615  -9.4892  -9.4892  -9.4638  -9.4638
    -5.1345  -5.1345  -4.8053  -4.8053  -1.8831  -1.8831  -0.5495  -0.5495
    -0.2498  -0.2498  -0.0786  -0.0786   0.3644   0.3644   0.3831   0.3831

          k =-0.4995 0.2436 0.0000 ( 25164 PWs)   bands (ev):

   -24.2388 -24.2388  -9.6865  -9.6865  -9.4840  -9.4840  -9.3827  -9.3827
    -5.5544  -5.5544  -4.8200  -4.8200  -1.1560  -1.1560  -0.5034  -0.5034
    -0.3311  -0.3311  -0.1674  -0.1674   0.1890   0.1890   0.3387   0.3387

          k =-0.4995 0.2436 0.3617 ( 25170 PWs)   bands (ev):

   -24.2332 -24.2332  -9.6650  -9.6650  -9.5816  -9.5816  -9.4566  -9.4566
    -5.1997  -5.1997  -4.9525  -4.9525  -1.3701  -1.3701  -0.8216  -0.8216
    -0.2421  -0.2421  -0.0455  -0.0455   0.2591   0.2591   0.4022   0.4022

          k =-0.4995 0.2436-0.7234 ( 25176 PWs)   bands (ev):

   -24.2276 -24.2276  -9.8440  -9.8440  -9.5027  -9.5027  -9.4731  -9.4731
    -5.1602  -5.1602  -4.7733  -4.7733  -1.7888  -1.7888  -0.7469  -0.7469
    -0.2040  -0.2040  -0.0148  -0.0148   0.3087   0.3087   0.4397   0.4397

          k =-0.4995-0.4871 0.0000 ( 25220 PWs)   bands (ev):

   -24.2388 -24.2388  -9.7259  -9.7259  -9.4422  -9.4422  -9.3824  -9.3824
    -5.5090  -5.5090  -4.8921  -4.8921  -1.0165  -1.0165  -0.6467  -0.6467
    -0.4260  -0.4260   0.0199   0.0199   0.1892   0.1892   0.3041   0.3041

          k =-0.4995-0.4871 0.3617 ( 25184 PWs)   bands (ev):

   -24.2332 -24.2332  -9.6443  -9.6443  -9.6186  -9.6186  -9.4419  -9.4419
    -5.1255  -5.1255  -5.0324  -5.0324  -1.3567  -1.3567  -0.8667  -0.8667
    -0.0922  -0.0922   0.0346   0.0346   0.1769   0.1769   0.3121   0.3121

          k =-0.4995-0.4871-0.7234 ( 25192 PWs)   bands (ev):

   -24.2275 -24.2275  -9.8242  -9.8242  -9.5219  -9.5219  -9.4787  -9.4787
    -5.1826  -5.1826  -4.7443  -4.7443  -1.6417  -1.6417  -1.0229  -1.0229
     0.0073   0.0073   0.0475   0.0475   0.1940   0.1940   0.4123   0.4123

     highest occupied level (ev):     0.5519

!    total energy              =    -156.47248605 Ry
     estimated scf accuracy    <          1.1E-11 Ry

     The total energy is the sum of the following terms:
     one-electron contribution =     -24.85000430 Ry
     hartree contribution      =      26.32129802 Ry
     xc contribution           =     -49.04306569 Ry
     ewald contribution        =    -108.90071409 Ry

     convergence has been achieved in   7 iterations

     Forces acting on atoms (cartesian axes, Ry/au):

     atom    1 type  2   force =     0.00000000    0.00000000    0.00000396
     atom    2 type  2   force =     0.00000000    0.00000000   -0.00000396
     atom    3 type  1   force =     0.00036183    0.00073306   -0.00000792
     atom    4 type  1   force =    -0.00036183   -0.00073306   -0.00000792
     atom    5 type  1   force =     0.00036183   -0.00073306    0.00000792
     atom    6 type  1   force =    -0.00036183    0.00073306    0.00000792
     atom    7 type  3   force =     0.00036429    0.00039497   -0.00001538
     atom    8 type  3   force =    -0.00036429   -0.00039497   -0.00001538
     atom    9 type  3   force =     0.00036429   -0.00039497    0.00001538
     atom   10 type  3   force =    -0.00036429    0.00039497    0.00001538
     atom   11 type  3   force =    -0.00000368    0.00093145    0.00000176
     atom   12 type  3   force =     0.00000368   -0.00093145    0.00000176
     atom   13 type  3   force =    -0.00000368   -0.00093145   -0.00000176
     atom   14 type  3   force =     0.00000368    0.00093145   -0.00000176
     atom   15 type  3   force =     0.00045660    0.00040930   -0.00028696
     atom   16 type  3   force =    -0.00045660   -0.00040930   -0.00028696
     atom   17 type  3   force =     0.00045660   -0.00040930    0.00028696
     atom   18 type  3   force =    -0.00045660    0.00040930    0.00028696
     atom   19 type  3   force =    -0.00042412   -0.00041826    0.00028008
     atom   20 type  3   force =     0.00042412    0.00041826    0.00028008
     atom   21 type  3   force =    -0.00042412    0.00041826   -0.00028008
     atom   22 type  3   force =     0.00042412   -0.00041826   -0.00028008

     Total force =     0.003296     Total SCF correction =     0.000002


     Computing stress (Cartesian axis) and pressure

          total   stress  (Ry/bohr**3)                   (kbar)     P=      -10.51
  -0.00006660   0.00000000   0.00000000           -9.80        0.00        0.00
   0.00000000  -0.00006726   0.00000000            0.00       -9.89        0.00
   0.00000000   0.00000000  -0.00008058            0.00        0.00      -11.85

     Volume is kept fixed: isostatic pressure set to zero
     Energy error            =      2.7E-05 Ry
     Gradient error          =      9.3E-04 Ry/Bohr
     Cell gradient error     =      1.3E+00 kbar

     number of scf cycles    =   4
     number of bfgs steps    =   3

     enthalpy           old  =    -156.4724586167 Ry
     enthalpy           new  =    -156.4724860530 Ry

     CASE: enthalpy          _new < enthalpy          _old

     new trust radius        =       0.0047254754 bohr
ibrav =      8
 celldm(1) =     12.82292661
 celldm(2) =      1.02531273
 celldm(3) =      0.68978445
Input lattice vectors:
     1.00134357     0.00000000     0.00000000
     0.00000000     1.02669031     0.00000000
     0.00000000     0.00000000     0.69071123
New lattice vectors in INITIAL alat:
     1.00134357     0.00000000     0.00000000
     0.00000000     1.02669031     0.00000000
     0.00000000     0.00000000     0.69071123
New lattice vectors in NEW alat (for information only):
     1.00000000     0.00000000     0.00000000
     0.00000000     1.02531273     0.00000000
     0.00000000     0.00000000     0.68978445
Discrepancy in bohr =     0.000000    0.000000    0.000000
     new conv_thr            =            2.7E-12 Ry

     new unit-cell volume =   1491.18395 a.u.^3 (   220.97066 Ang^3 )
     density =      2.51011 g/cm^3

CELL_PARAMETERS (alat= 12.80572119)
   1.001343573   0.000000000   0.000000000
   0.000000000   1.026690314   0.000000000
   0.000000000   0.000000000   0.690711228

ATOMIC_POSITIONS (crystal)
Ba               0.5000000000        0.5000000000        0.5001049253
Ba               0.0000000000        0.0000000000        0.9998950747
B                0.6104482458        0.2398173936        0.0000575434
B                0.3895517542        0.7601826064        0.0000575434
B                0.1104482458        0.2601826064        0.4999424566
B                0.8895517542        0.7398173936        0.4999424566
H                0.4367448328        0.2916607746        0.0002173553
H                0.5632551672        0.7083392254        0.0002173553
H                0.9367448328        0.2083392254        0.4997826447
H                0.0632551672        0.7916607746        0.4997826447
H                0.7203665364        0.3818692949       -0.0000050601
H                0.2796334636        0.6181307051       -0.0000050601
H                0.2203665364        0.1181307051        0.5000050601
H                0.7796334636        0.8818692949        0.5000050601
H                0.6390998192        0.1436462380        0.7835974026
H                0.3609001808        0.8563537620        0.7835974026
H                0.1390998192        0.3563537620        0.7164025974
H                0.8609001808        0.6436462380        0.7164025974
H                0.3607064311        0.8563963923        0.2164197431
H                0.6392935689        0.1436036077        0.2164197431
H                0.8607064311        0.6436036077        0.2835802569
H                0.1392935689        0.3563963923        0.2835802569



     Writing config-only to output data dir ./pwscf.save/ :
     XML data file
     NEW-OLD atomic charge density approx. for the potential

     total cpu time spent up to now is      831.4 secs

     Self-consistent Calculation

     iteration #  1     ecut=   100.00 Ry     beta= 0.70
     Davidson diagonalization with overlap
     ethr =  1.00E-06,  avg # of iterations =  2.0

     Threshold (ethr) on eigenvalues was too large:
     Diagonalizing with lowered threshold

     Davidson diagonalization with overlap
     ethr =  1.49E-08,  avg # of iterations =  3.0

     total cpu time spent up to now is      865.8 secs

     total energy              =    -156.47251312 Ry
     estimated scf accuracy    <       0.00000973 Ry

     iteration #  2     ecut=   100.00 Ry     beta= 0.70
     Davidson diagonalization with overlap
     ethr =  2.03E-08,  avg # of iterations =  2.0

     total cpu time spent up to now is      882.5 secs

     total energy              =    -156.47251537 Ry
     estimated scf accuracy    <       0.00000109 Ry

     iteration #  3     ecut=   100.00 Ry     beta= 0.70
     Davidson diagonalization with overlap
     ethr =  2.27E-09,  avg # of iterations =  2.0

     total cpu time spent up to now is      899.1 secs

     total energy              =    -156.47251553 Ry
     estimated scf accuracy    <       0.00000003 Ry

     iteration #  4     ecut=   100.00 Ry     beta= 0.70
     Davidson diagonalization with overlap
     ethr =  5.57E-11,  avg # of iterations =  4.7

     total cpu time spent up to now is      919.4 secs

     total energy              =    -156.47251554 Ry
     estimated scf accuracy    <          5.5E-09 Ry

     iteration #  5     ecut=   100.00 Ry     beta= 0.70
     Davidson diagonalization with overlap
     ethr =  1.16E-11,  avg # of iterations =  4.1

     total cpu time spent up to now is      938.9 secs

     total energy              =    -156.47251554 Ry
     estimated scf accuracy    <          1.1E-10 Ry

     iteration #  6     ecut=   100.00 Ry     beta= 0.70
     Davidson diagonalization with overlap
     ethr =  2.31E-13,  avg # of iterations =  6.5

     total cpu time spent up to now is      968.8 secs

     total energy              =    -156.47251554 Ry
     estimated scf accuracy    <          4.1E-12 Ry

     iteration #  7     ecut=   100.00 Ry     beta= 0.70
     Davidson diagonalization with overlap
     ethr =  1.00E-13,  avg # of iterations =  2.0

     total cpu time spent up to now is      982.7 secs

     End of self-consistent calculation

          k = 0.0000 0.0000 0.0000 ( 25185 PWs)   bands (ev):

   -24.2423 -24.2350  -9.7224  -9.6458  -9.4776  -9.4439  -9.4101  -9.3562
    -6.1678  -5.2744  -4.6764  -4.5221  -1.8406  -0.9710  -0.9358  -0.5913
    -0.2081  -0.1962  -0.1576  -0.0300   0.1328   0.4917   0.5138   0.5450

          k = 0.0000 0.0000 0.3619 ( 25172 PWs)   bands (ev):

   -24.2356 -24.2304  -9.6375  -9.6359  -9.6133  -9.5863  -9.4617  -9.4433
    -5.7074  -5.0402  -4.8279  -4.7271  -1.4775  -1.2373  -0.7798  -0.7481
    -0.6084  -0.4994  -0.1587   0.1101   0.3094   0.3272   0.4084   0.5426

          k = 0.0000 0.0000-0.7239 ( 25204 PWs)   bands (ev):

   -24.2273 -24.2273  -9.8332  -9.8331  -9.5089  -9.5089  -9.4716  -9.4716
    -5.0423  -5.0419  -4.9591  -4.9586  -1.2366  -1.2361  -1.2244  -1.2230
    -0.2289  -0.2285  -0.1857  -0.1838   0.3601   0.3602   0.3802   0.3804

          k = 0.0000 0.2435 0.0000 ( 25154 PWs)   bands (ev):

   -24.2412 -24.2361  -9.6962  -9.6199  -9.5217  -9.4740  -9.4021  -9.3639
    -5.9847  -5.1945  -4.9330  -4.6399  -1.5072  -1.1103  -1.0457  -0.2975
    -0.2916  -0.2896   0.0028   0.1243   0.1836   0.2142   0.4094   0.4864

          k = 0.0000 0.2435 0.3619 ( 25186 PWs)   bands (ev):

   -24.2348 -24.2312  -9.6756  -9.6401  -9.5738  -9.5628  -9.4690  -9.4617
    -5.6070  -5.1068  -4.8691  -4.7660  -1.2965  -1.2602  -1.0566  -0.5212
    -0.4864  -0.3099  -0.2859   0.1582   0.2397   0.2702   0.3836   0.4343

          k = 0.0000 0.2435-0.7239 ( 25192 PWs)   bands (ev):

   -24.2273 -24.2273  -9.8450  -9.8449  -9.4933  -9.4933  -9.4710  -9.4710
    -5.2907  -5.2907  -4.7017  -4.7016  -1.3486  -1.3480  -1.0618  -1.0610
    -0.1656  -0.1656  -0.1419  -0.1403   0.2084   0.2085   0.3701   0.3703

          k = 0.0000-0.4870 0.0000 ( 25178 PWs)   bands (ev):

   -24.2386 -24.2386  -9.6245  -9.6245  -9.5422  -9.5422  -9.3828  -9.3828
    -5.5224  -5.5224  -4.9019  -4.9019  -1.2248  -1.2248  -0.6075  -0.6075
    -0.3614  -0.3614   0.0953   0.0953   0.2441   0.2441   0.3534   0.3534

          k = 0.0000-0.4870 0.3619 ( 25188 PWs)   bands (ev):

   -24.2330 -24.2330  -9.6739  -9.6739  -9.5280  -9.5280  -9.4921  -9.4921
    -5.3558  -5.3558  -4.8408  -4.8408  -1.2404  -1.2404  -0.8429  -0.8429
    -0.2642  -0.2642   0.0134   0.0134   0.1477   0.1477   0.3610   0.3610

          k = 0.0000-0.4870-0.7239 ( 25228 PWs)   bands (ev):

   -24.2273 -24.2273  -9.8558  -9.8558  -9.4809  -9.4809  -9.4681  -9.4681
    -5.4070  -5.4070  -4.5765  -4.5765  -1.4334  -1.4334  -0.8372  -0.8372
    -0.2353  -0.2353  -0.0610  -0.0610   0.0216   0.0216   0.4061   0.4061

[...]
        22        H      tau(  22) = (   0.1526277   0.3577785   0.1917896  )

     number of k points=    27
                       cart. coord. in units 2pi/alat
        k(    1) = (   0.0000000   0.0000000   0.0000000), wk =   0.0312500
        k(    2) = (   0.0000000   0.0000000   0.3657296), wk =   0.0625000
        k(    3) = (   0.0000000   0.0000000  -0.7314591), wk =   0.0312500
        k(    4) = (   0.0000000   0.2438807   0.0000000), wk =   0.0625000
        k(    5) = (   0.0000000   0.2438807   0.3657296), wk =   0.1250000
        k(    6) = (   0.0000000   0.2438807  -0.7314591), wk =   0.0625000
        k(    7) = (   0.0000000  -0.4877614   0.0000000), wk =   0.0312500
        k(    8) = (   0.0000000  -0.4877614   0.3657296), wk =   0.0625000
        k(    9) = (   0.0000000  -0.4877614  -0.7314591), wk =   0.0312500
        k(   10) = (   0.2466968   0.0000000   0.0000000), wk =   0.0625000
        k(   11) = (   0.2466968   0.0000000   0.3657296), wk =   0.1250000
        k(   12) = (   0.2466968   0.0000000  -0.7314591), wk =   0.0625000
        k(   13) = (   0.2466968   0.2438807   0.0000000), wk =   0.1250000
        k(   14) = (   0.2466968   0.2438807   0.3657296), wk =   0.2500000
        k(   15) = (   0.2466968   0.2438807  -0.7314591), wk =   0.1250000
        k(   16) = (   0.2466968  -0.4877614   0.0000000), wk =   0.0625000
        k(   17) = (   0.2466968  -0.4877614   0.3657296), wk =   0.1250000
        k(   18) = (   0.2466968  -0.4877614  -0.7314591), wk =   0.0625000
        k(   19) = (  -0.4933935   0.0000000   0.0000000), wk =   0.0312500
        k(   20) = (  -0.4933935   0.0000000   0.3657296), wk =   0.0625000
        k(   21) = (  -0.4933935   0.0000000  -0.7314591), wk =   0.0312500
        k(   22) = (  -0.4933935   0.2438807   0.0000000), wk =   0.0625000
        k(   23) = (  -0.4933935   0.2438807   0.3657296), wk =   0.1250000
        k(   24) = (  -0.4933935   0.2438807  -0.7314591), wk =   0.0625000
        k(   25) = (  -0.4933935  -0.4877614   0.0000000), wk =   0.0312500
        k(   26) = (  -0.4933935  -0.4877614   0.3657296), wk =   0.0625000
        k(   27) = (  -0.4933935  -0.4877614  -0.7314591), wk =   0.0312500

     Dense  grid:   569693 G-vectors     FFT dimensions: ( 120, 120,  80)

     Smooth grid:   201343 G-vectors     FFT dimensions: (  90,  90,  60)

     Estimated max dynamical RAM per process >      93.77 MB

     Estimated total dynamical RAM >       2.20 GB

     Initial potential from superposition of free atoms

     starting charge      47.9682, renormalised to      48.0000
     Starting wfcs are   42 randomized atomic wfcs

     total cpu time spent up to now is    10112.3 secs

     Self-consistent Calculation

     iteration #  1     ecut=   100.00 Ry     beta= 0.70
     Davidson diagonalization with overlap
     ethr =  1.00E-06,  avg # of iterations = 11.1

     total cpu time spent up to now is    10162.9 secs

     total energy              =    -155.83467909 Ry
     estimated scf accuracy    <       2.26564636 Ry

     iteration #  2     ecut=   100.00 Ry     beta= 0.70
     Davidson diagonalization with overlap
     ethr =  4.72E-03,  avg # of iterations =  2.0

     total cpu time spent up to now is    10179.1 secs

     total energy              =    -156.39676481 Ry
     estimated scf accuracy    <       0.46996582 Ry

     iteration #  3     ecut=   100.00 Ry     beta= 0.70
     Davidson diagonalization with overlap
     ethr =  9.79E-04,  avg # of iterations =  2.0

     total cpu time spent up to now is    10195.2 secs

     total energy              =    -156.47064179 Ry
     estimated scf accuracy    <       0.00567537 Ry

     iteration #  4     ecut=   100.00 Ry     beta= 0.70
     Davidson diagonalization with overlap
     ethr =  1.18E-05,  avg # of iterations =  3.3

     total cpu time spent up to now is    10215.2 secs

     total energy              =    -156.47273965 Ry
     estimated scf accuracy    <       0.00226312 Ry

     iteration #  5     ecut=   100.00 Ry     beta= 0.70
     Davidson diagonalization with overlap
     ethr =  4.71E-06,  avg # of iterations =  3.2

     total cpu time spent up to now is    10232.1 secs

     total energy              =    -156.47338300 Ry
     estimated scf accuracy    <       0.00005097 Ry

     iteration #  6     ecut=   100.00 Ry     beta= 0.70
     Davidson diagonalization with overlap
     ethr =  1.06E-07,  avg # of iterations =  6.2

     total cpu time spent up to now is    10259.1 secs

     total energy              =    -156.47348170 Ry
     estimated scf accuracy    <       0.00001876 Ry

     iteration #  7     ecut=   100.00 Ry     beta= 0.70
     Davidson diagonalization with overlap
     ethr =  3.91E-08,  avg # of iterations =  2.3

     total cpu time spent up to now is    10275.5 secs

     total energy              =    -156.47348568 Ry
     estimated scf accuracy    <       0.00000015 Ry

     iteration #  8     ecut=   100.00 Ry     beta= 0.70
     Davidson diagonalization with overlap
     ethr =  3.23E-10,  avg # of iterations =  6.8

     total cpu time spent up to now is    10305.5 secs

     total energy              =    -156.47348615 Ry
     estimated scf accuracy    <       0.00000008 Ry

     iteration #  9     ecut=   100.00 Ry     beta= 0.70
     Davidson diagonalization with overlap
     ethr =  1.75E-10,  avg # of iterations =  2.0

     total cpu time spent up to now is    10321.3 secs

     total energy              =    -156.47348615 Ry
     estimated scf accuracy    <          9.1E-09 Ry

     iteration # 10     ecut=   100.00 Ry     beta= 0.70
     Davidson diagonalization with overlap
     ethr =  1.89E-11,  avg # of iterations =  4.1

     total cpu time spent up to now is    10340.0 secs

     total energy              =    -156.47348616 Ry
     estimated scf accuracy    <          1.1E-10 Ry

     iteration # 11     ecut=   100.00 Ry     beta= 0.70
     Davidson diagonalization with overlap
     ethr =  2.31E-13,  avg # of iterations =  9.0

     total cpu time spent up to now is    10379.5 secs

     total energy              =    -156.47348616 Ry
     estimated scf accuracy    <          8.0E-11 Ry

     iteration # 12     ecut=   100.00 Ry     beta= 0.70
     Davidson diagonalization with overlap
     ethr =  1.66E-13,  avg # of iterations =  2.0

     total cpu time spent up to now is    10396.9 secs

     total energy              =    -156.47348616 Ry
     estimated scf accuracy    <          2.3E-12 Ry

     iteration # 13     ecut=   100.00 Ry     beta= 0.70
     Davidson diagonalization with overlap
     ethr =  1.00E-13,  avg # of iterations =  1.0

     total cpu time spent up to now is    10409.6 secs

     total energy              =    -156.47348616 Ry
     estimated scf accuracy    <          1.2E-12 Ry

     iteration # 14     ecut=   100.00 Ry     beta= 0.70
     Davidson diagonalization with overlap
     ethr =  1.00E-13,  avg # of iterations =  1.0

     total cpu time spent up to now is    10422.3 secs

     End of self-consistent calculation

          k = 0.0000 0.0000 0.0000 ( 25179 PWs)   bands (ev):

   -24.1869 -24.1795  -9.7026  -9.6325  -9.4450  -9.4070  -9.3660  -9.3101
    -6.1971  -5.2983  -4.6853  -4.5728  -1.8945  -0.9702  -0.9499  -0.5920
    -0.3418  -0.2792  -0.1491  -0.1368   0.1388   0.4729   0.4768   0.5167

          k = 0.0000 0.0000 0.3657 ( 25206 PWs)   bands (ev):

   -24.1792 -24.1740  -9.6210  -9.6103  -9.5993  -9.5626  -9.4264  -9.4040
    -5.6996  -5.0264  -4.8589  -4.7859  -1.5003  -1.3167  -0.9418  -0.7506
    -0.5999  -0.5120  -0.1670   0.0871   0.2768   0.2895   0.3471   0.4820

          k = 0.0000 0.0000-0.7315 ( 25188 PWs)   bands (ev):

   -24.1700 -24.1700  -9.8415  -9.8415  -9.4696  -9.4696  -9.4356  -9.4356
    -5.0209  -5.0209  -4.9981  -4.9981  -1.3519  -1.3519  -1.2626  -1.2625
    -0.2208  -0.2207  -0.1895  -0.1893   0.2807   0.2808   0.3498   0.3499

          k = 0.0000 0.2439 0.0000 ( 25160 PWs)   bands (ev):

   -24.1858 -24.1805  -9.6756  -9.6051  -9.4896  -9.4401  -9.3576  -9.3181
    -6.0150  -5.2428  -4.9210  -4.6785  -1.5818  -1.1383  -1.0421  -0.3311
    -0.3062  -0.3003  -0.1081   0.0363   0.1579   0.1720   0.3883   0.4517

          k = 0.0000 0.2439 0.3657 ( 25188 PWs)   bands (ev):

   -24.1784 -24.1747  -9.6572  -9.6245  -9.5497  -9.5384  -9.4349  -9.4240
    -5.5998  -5.0984  -4.8976  -4.8176  -1.3378  -1.3354  -1.1405  -0.5538
    -0.5290  -0.3158  -0.3029   0.1196   0.2176   0.2371   0.3375   0.3775

          k = 0.0000 0.2439-0.7315 ( 25220 PWs)   bands (ev):

   -24.1700 -24.1700  -9.8525  -9.8525  -9.4542  -9.4542  -9.4354  -9.4354
    -5.2984  -5.2984  -4.7105  -4.7105  -1.4879  -1.4879  -1.0830  -1.0829
    -0.1567  -0.1565  -0.1459  -0.1459   0.1778   0.1779   0.3017   0.3017

          k = 0.0000-0.4878 0.0000 ( 25138 PWs)   bands (ev):

   -24.1832 -24.1832  -9.6039  -9.6039  -9.5126  -9.5126  -9.3378  -9.3378
    -5.5614  -5.5614  -4.9119  -4.9119  -1.2891  -1.2891  -0.6163  -0.6163
    -0.3687  -0.3687   0.0585   0.0585   0.1586   0.1586   0.3058   0.3058

          k = 0.0000-0.4878 0.3657 ( 25184 PWs)   bands (ev):

   -24.1766 -24.1766  -9.6571  -9.6571  -9.5030  -9.5030  -9.4567  -9.4567
    -5.3504  -5.3504  -4.8769  -4.8769  -1.3255  -1.3255  -0.8745  -0.8745
    -0.3118  -0.3118   0.0239   0.0239   0.0909   0.0909   0.3236   0.3236

          k = 0.0000-0.4878-0.7315 ( 25216 PWs)   bands (ev):

   -24.1700 -24.1700  -9.8627  -9.8627  -9.4414  -9.4414  -9.4333  -9.4333
    -5.4159  -5.4159  -4.5826  -4.5826  -1.5804  -1.5804  -0.8712  -0.8712
    -0.1971  -0.1971  -0.0581  -0.0581  -0.0386  -0.0386   0.3556   0.3556

          k = 0.2467 0.0000 0.0000 ( 25153 PWs)   bands (ev):

   -24.1858 -24.1805  -9.6679  -9.6121  -9.4830  -9.4519  -9.3577  -9.3182
    -6.0257  -5.3414  -4.7225  -4.7072  -1.7026  -0.8833  -0.8540  -0.7227
    -0.2257  -0.1578  -0.1439  -0.1338   0.0743   0.0985   0.4172   0.4558

          k = 0.2467 0.0000 0.3657 ( 25172 PWs)   bands (ev):

   -24.1784 -24.1747  -9.6503  -9.6314  -9.5743  -9.5183  -9.4476  -9.4136
    -5.5690  -5.0222  -4.9035  -4.8849  -1.4756  -1.2657  -1.1459  -0.5897
    -0.5629  -0.3428  -0.1584   0.0098   0.1412   0.2791   0.4079   0.4393

          k = 0.2467 0.0000-0.7315 ( 25210 PWs)   bands (ev):

   -24.1700 -24.1700  -9.8558  -9.8558  -9.4590  -9.4590  -9.4318  -9.4318
    -5.1513  -5.1513  -4.8440  -4.8440  -1.7458  -1.7458  -0.8776  -0.8775
    -0.2227  -0.2227   0.0024   0.0025   0.1307   0.1309   0.3604   0.3605

          k = 0.2467 0.2439 0.0000 ( 25166 PWs)   bands (ev):

   -24.1850 -24.1813  -9.6924  -9.5893  -9.5263  -9.4150  -9.3517  -9.3238
    -5.8986  -5.3328  -4.9160  -4.7200  -1.4609  -1.1150  -0.8838  -0.4393
    -0.3572  -0.3049  -0.0729   0.0556   0.0608   0.1714   0.2811   0.3915

          k = 0.2467 0.2439 0.3657 ( 25183 PWs)   bands (ev):

   -24.1779 -24.1752  -9.6510  -9.6197  -9.6031  -9.5021  -9.4553  -9.4082
    -5.4867  -5.0632  -4.9756  -4.8789  -1.4482  -1.2509  -1.1536  -0.6153
    -0.4370  -0.2866  -0.1700   0.0536   0.1037   0.2281   0.3567   0.4303

          k = 0.2467 0.2439-0.7315 ( 25184 PWs)   bands (ev):

   -24.1700 -24.1700  -9.8619  -9.8429  -9.4746  -9.4448  -9.4364  -9.4334
    -5.3249  -5.1488  -4.8416  -4.6597  -1.7521  -1.6376  -0.9983  -0.8472
    -0.2731  -0.2515   0.0141   0.0883   0.1250   0.1915   0.3223   0.3414

          k = 0.2467-0.4878 0.0000 ( 25196 PWs)   bands (ev):

   -24.1831 -24.1831  -9.6681  -9.6681  -9.4473  -9.4473  -9.3375  -9.3375
    -5.5776  -5.5776  -4.8885  -4.8885  -1.2111  -1.2111  -0.6421  -0.6421
    -0.4045  -0.4045   0.0068   0.0068   0.1958   0.1958   0.2692   0.2692

          k = 0.2467-0.4878 0.3657 ( 25202 PWs)   bands (ev):

   -24.1766 -24.1766  -9.6455  -9.6455  -9.5543  -9.5543  -9.4218  -9.4218
    -5.2816  -5.2816  -4.9327  -4.9327  -1.3800  -1.3800  -0.8608  -0.8608
    -0.3086  -0.3086   0.0023   0.0023   0.1623   0.1623   0.3274   0.3274

          k = 0.2467-0.4878-0.7315 ( 25200 PWs)   bands (ev):

   -24.1699 -24.1699  -9.8497  -9.8497  -9.4596  -9.4596  -9.4383  -9.4383
    -5.3226  -5.3226  -4.6569  -4.6569  -1.6457  -1.6457  -0.9888  -0.9888
    -0.1758  -0.1758  -0.0398  -0.0398   0.1860   0.1860   0.3383   0.3383

          k =-0.4934 0.0000 0.0000 ( 25110 PWs)   bands (ev):

   -24.1831 -24.1831  -9.5884  -9.5884  -9.5327  -9.5327  -9.3378  -9.3378
    -5.6313  -5.6313  -4.7855  -4.7855  -1.2973  -1.2973  -0.5069  -0.5069
    -0.1839  -0.1839  -0.1673  -0.1673  -0.0725  -0.0725   0.3023   0.3023

          k =-0.4934 0.0000 0.3657 ( 25206 PWs)   bands (ev):

   -24.1766 -24.1766  -9.6585  -9.6585  -9.5186  -9.5186  -9.4465  -9.4465
    -5.2565  -5.2565  -4.9377  -4.9377  -1.4059  -1.4059  -0.8814  -0.8814
    -0.2953  -0.2953  -0.1367  -0.1367   0.2150   0.2150   0.3948   0.3948

          k =-0.4934 0.0000-0.7315 ( 25196 PWs)   bands (ev):

   -24.1699 -24.1699  -9.8692  -9.8692  -9.4513  -9.4513  -9.4259  -9.4259
    -5.2062  -5.2062  -4.7639  -4.7639  -1.9357  -1.9357  -0.6147  -0.6147
    -0.2184  -0.2184  -0.1363  -0.1363   0.2976   0.2976   0.3019   0.3019

          k =-0.4934 0.2439 0.0000 ( 25164 PWs)   bands (ev):

   -24.1831 -24.1831  -9.6662  -9.6662  -9.4515  -9.4515  -9.3375  -9.3375
    -5.6133  -5.6133  -4.8246  -4.8246  -1.2221  -1.2221  -0.5498  -0.5498
    -0.3489  -0.3489  -0.1833  -0.1833   0.1252   0.1252   0.3069   0.3069

          k =-0.4934 0.2439 0.3657 ( 25196 PWs)   bands (ev):

   -24.1765 -24.1765  -9.6463  -9.6463  -9.5583  -9.5583  -9.4203  -9.4203
    -5.2226  -5.2226  -4.9750  -4.9750  -1.4140  -1.4140  -0.8900  -0.8900
    -0.2414  -0.2414  -0.1079  -0.1079   0.2304   0.2304   0.3457   0.3457

          k =-0.4934 0.2439-0.7315 ( 25212 PWs)   bands (ev):

   -24.1699 -24.1699  -9.8531  -9.8531  -9.4628  -9.4628  -9.4361  -9.4361
    -5.2026  -5.2026  -4.7625  -4.7625  -1.8447  -1.8447  -0.8361  -0.8361
    -0.1741  -0.1741  -0.0700  -0.0700   0.2469   0.2469   0.3966   0.3966

          k =-0.4934-0.4878 0.0000 ( 25188 PWs)   bands (ev):

   -24.1831 -24.1831  -9.7065  -9.7065  -9.4078  -9.4078  -9.3373  -9.3373
    -5.5939  -5.5939  -4.8646  -4.8646  -1.1191  -1.1191  -0.6845  -0.6845
    -0.4363  -0.4363  -0.0264  -0.0264   0.2156   0.2156   0.2290   0.2290

          k =-0.4934-0.4878 0.3657 ( 25156 PWs)   bands (ev):

   -24.1765 -24.1765  -9.6165  -9.6165  -9.6056  -9.6056  -9.4042  -9.4042
    -5.1744  -5.1744  -5.0264  -5.0264  -1.4090  -1.4090  -0.9365  -0.9365
    -0.1756  -0.1756   0.0635   0.0635   0.1047   0.1047   0.3076   0.3076

          k =-0.4934-0.4878-0.7315 ( 25128 PWs)   bands (ev):

   -24.1699 -24.1699  -9.8354  -9.8354  -9.4800  -9.4800  -9.4423  -9.4423
    -5.1997  -5.1997  -4.7604  -4.7604  -1.6995  -1.6995  -1.1145  -1.1145
    -0.0616  -0.0616   0.0907   0.0907   0.1331   0.1331   0.3902   0.3902

     highest occupied level (ev):     0.5167

!    total energy              =    -156.47348616 Ry
     estimated scf accuracy    <          6.0E-15 Ry

     The total energy is the sum of the following terms:
     one-electron contribution =     -26.32866573 Ry
     hartree contribution      =      27.06294734 Ry
     xc contribution           =     -49.08422692 Ry
     ewald contribution        =    -108.12354084 Ry

     convergence has been achieved in  14 iterations

     Forces acting on atoms (cartesian axes, Ry/au):

     atom    1 type  2   force =     0.00000000    0.00000000   -0.00000232
     atom    2 type  2   force =     0.00000000    0.00000000    0.00000232
     atom    3 type  1   force =    -0.00000182    0.00000100   -0.00000307
     atom    4 type  1   force =     0.00000182   -0.00000100   -0.00000307
     atom    5 type  1   force =    -0.00000182   -0.00000100    0.00000307
     atom    6 type  1   force =     0.00000182    0.00000100    0.00000307
     atom    7 type  3   force =     0.00000268    0.00000002    0.00000807
     atom    8 type  3   force =    -0.00000268   -0.00000002    0.00000807
     atom    9 type  3   force =     0.00000268   -0.00000002   -0.00000807
     atom   10 type  3   force =    -0.00000268    0.00000002   -0.00000807
     atom   11 type  3   force =    -0.00000168   -0.00000288    0.00000014
     atom   12 type  3   force =     0.00000168    0.00000288    0.00000014
     atom   13 type  3   force =    -0.00000168    0.00000288   -0.00000014
     atom   14 type  3   force =     0.00000168   -0.00000288   -0.00000014
     atom   15 type  3   force =     0.00000319   -0.00000115    0.00000001
     atom   16 type  3   force =    -0.00000319    0.00000115    0.00000001
     atom   17 type  3   force =     0.00000319    0.00000115   -0.00000001
     atom   18 type  3   force =    -0.00000319   -0.00000115   -0.00000001
     atom   19 type  3   force =     0.00000136   -0.00000315   -0.00000400
     atom   20 type  3   force =    -0.00000136    0.00000315   -0.00000400
     atom   21 type  3   force =     0.00000136    0.00000315    0.00000400
     atom   22 type  3   force =    -0.00000136   -0.00000315    0.00000400

     Total force =     0.000024     Total SCF correction =     0.000000


     Computing stress (Cartesian axis) and pressure

          total   stress  (Ry/bohr**3)                   (kbar)     P=       -5.69
  -0.00003865   0.00000000   0.00000000           -5.69        0.00        0.00
   0.00000000  -0.00003868   0.00000000            0.00       -5.69        0.00
   0.00000000   0.00000000  -0.00003868            0.00        0.00       -5.69


     Writing all to output data dir ./pwscf.save/ :
     XML data file, charge density, pseudopotentials, collected wavefunctions

     init_run     :     19.12s CPU     20.73s WALL (       2 calls)
     electrons    :   8487.31s CPU   8552.36s WALL (      59 calls)
     update_pot   :     13.64s CPU     15.02s WALL (      57 calls)
     forces       :    197.78s CPU    199.15s WALL (      59 calls)
     stress       :   1645.54s CPU   1649.60s WALL (      59 calls)

     Called by init_run:
     wfcinit      :     15.30s CPU     15.41s WALL (       2 calls)
     potinit      :      0.68s CPU      1.22s WALL (       2 calls)
     hinit0       :      1.33s CPU      2.19s WALL (       2 calls)

     Called by electrons:
     c_bands      :   7468.50s CPU   7516.42s WALL (     449 calls)
     sum_band     :    881.60s CPU    890.86s WALL (     449 calls)
     v_of_rho     :     57.86s CPU     60.98s WALL (     461 calls)
     newd         :     82.48s CPU     84.30s WALL (     461 calls)
     mix_rho      :      6.38s CPU      7.08s WALL (     449 calls)

     Called by c_bands:
     init_us_2    :    171.04s CPU    172.97s WALL (   27486 calls)
     cegterg      :   6681.78s CPU   6726.87s WALL (   12123 calls)

     Called by *egterg:
     cdiaghg      :     85.17s CPU     85.77s WALL (   48250 calls)
     h_psi        :   4813.60s CPU   4850.35s WALL (   51112 calls)
     s_psi        :    824.01s CPU    827.33s WALL (   51112 calls)
     g_psi        :     15.63s CPU     15.71s WALL (   38935 calls)

     Called by h_psi:
     h_psi:calbec :    734.00s CPU    737.57s WALL (   51112 calls)
     vloc_psi     :   3235.35s CPU   3265.35s WALL (   51112 calls)
     add_vuspsi   :    831.24s CPU    834.56s WALL (   51112 calls)

     General routines
     calbec       :   1572.40s CPU   1578.15s WALL (   71200 calls)
     fft          :     47.34s CPU     53.32s WALL (    7454 calls)
     ffts         :      2.86s CPU      3.58s WALL (     910 calls)
     fftw         :   3344.94s CPU   3375.68s WALL ( 2098692 calls)
     interpolate  :      4.37s CPU      5.32s WALL (     461 calls)

     Parallel routines

     PWSCF        :      2h52m CPU      2h54m WALL


   This run was terminated on:  18:24:57  11Jul2024            

=------------------------------------------------------------------------------=
   JOB DONE.
=------------------------------------------------------------------------------=
