
     Program PWSCF v.7.3.1 starts on 12Jul2024 at 14:14: 7 

     This program is part of the open-source Quantum ESPRESSO suite
     for quantum simulation of materials; please cite
         "P. Giannozzi et al., J. Phys.:Condens. Matter 21 395502 (2009);
         "P. Giannozzi et al., J. Phys.:Condens. Matter 29 465901 (2017);
         "P. Giannozzi et al., J. Chem. Phys. 152 154105 (2020);
          URL http://www.quantum-espresso.org", 
     in publications or presentations arising from this work. More details at
     http://www.quantum-espresso.org/quote

     Parallel version (MPI), running on    16 processors

     MPI processes distributed on     1 nodes
     61861 MiB available memory on the printing compute node when the environment starts

     Waiting for input...
     Reading input from standard input

     Current dimensions of program PWSCF are:
     Max number of different atomic species (ntypx) = 10
     Max number of k-points (npk) =  40000
     Max angular momentum in pseudopotentials (lmaxx) =  4

     R & G space division:  proc/nbgrp/npool/nimage =      16
     Subspace diagonalization in iterative solution of the eigenvalue problem:
     a serial algorithm will be used


     Parallelization info
     --------------------
     sticks:   dense  smooth     PW     G-vecs:    dense   smooth      PW
     Min         645     322     88                33733    11927    1726
     Max         646     324     89                33736    11928    1729
     Sum       10329    5163   1417               539751   190841   27633

     Using Slab Decomposition


     Title: 
     volume variation                                                           


     bravais-lattice index     =            8
     lattice parameter (alat)  =      12.5770  a.u.
     unit-cell volume          =    1412.7006 (a.u.)^3
     number of atoms/cell      =           22
     number of atomic types    =            3
     number of electrons       =        48.00
     number of Kohn-Sham states=           24
     kinetic-energy cutoff     =     100.0000  Ry
     charge density cutoff     =     800.0000  Ry
     scf convergence threshold =      1.0E-10
     mixing beta               =       0.7000
     number of iterations used =            8  plain     mixing
     energy convergence thresh.=      1.0E-05
     force convergence thresh. =      1.0E-05
     press convergence thresh. =      5.0E-01
     Exchange-correlation= PBESOL
                           (   1   4  10   8   0   0   0)
     nstep                     =          300


     celldm(1)=  12.576999  celldm(2)=   1.025571  celldm(3)=   0.692394
     celldm(4)=   0.000000  celldm(5)=   0.000000  celldm(6)=   0.000000

     crystal axes: (cart. coord. in units of alat)
               a(1) = (   1.000000   0.000000   0.000000 )  
               a(2) = (   0.000000   1.025571   0.000000 )  
               a(3) = (   0.000000   0.000000   0.692394 )  

     reciprocal axes: (cart. coord. in units 2 pi/alat)
               b(1) = (  1.000000  0.000000  0.000000 )  
               b(2) = (  0.000000  0.975067  0.000000 )  
               b(3) = (  0.000000  0.000000  1.444264 )  


     PseudoPot. # 1 for B  read from file:
     /home/mehlhorn/pseudos/b_pbesol_v1.4.uspp.F.UPF
     MD5 check sum: 369b69bef2c3aeed4453bd8b804fd6a8
     Pseudo is Ultrasoft + core correction, Zval =  3.0
     Generated by new atomic code, or converted to UPF format
     Using radial grid of  781 points,  4 beta functions with: 
                l(1) =   0
                l(2) =   0
                l(3) =   1
                l(4) =   1
     Q(r) pseudized with  8 coefficients,  rinner =    1.100   1.100   1.100


     PseudoPot. # 2 for Ba read from file:
     /home/mehlhorn/pseudos/Ba.nc.z_10.oncvpsp4.dojo.v4-sp.upf
     MD5 check sum: c10ed334bb677c0554edec7181ce9143
     Pseudo is Norm-conserving + core correction, Zval = 10.0
     Generated using ONCVPSP code by D. R. Hamann
     Using radial grid of 1938 points,  8 beta functions with: 
                l(1) =   0
                l(2) =   0
                l(3) =   1
                l(4) =   1
                l(5) =   2
                l(6) =   2
                l(7) =   3
                l(8) =   3

     PseudoPot. # 3 for H  read from file:
     /home/mehlhorn/pseudos/H_ONCV_PBEsol-1.0.upf
     MD5 check sum: 398ef8f67c0a7342c05c87c5e19ea467
     Pseudo is Norm-conserving, Zval =  1.0
     Generated using ONCVPSP code by D. R. Hamann
     Using radial grid of 1180 points,  2 beta functions with: 
                l(1) =   0
                l(2) =   0

     atomic species   valence    mass     pseudopotential
     B                 3.00    10.81100     B ( 1.00)
     Ba               10.00   137.32700     Ba( 1.00)
     H                 1.00     1.00794     H ( 1.00)

      4 Sym. Ops. (no inversion) found ( 2 have fractional translation)



   Cartesian axes

     site n.     atom                  positions (alat units)
         1        Ba     tau(   1) = (   0.5000000   0.5127855   0.3462657  )
         2        Ba     tau(   2) = (   0.0000000   0.0000000   0.6923255  )
         3        B      tau(   3) = (   0.6102570   0.2453190   0.0000455  )
         4        B      tau(   4) = (   0.3897430   0.7802519   0.0000455  )
         5        B      tau(   5) = (   0.1102570   0.2674665   0.3461516  )
         6        B      tau(   6) = (   0.8897430   0.7581045   0.3461516  )
         7        H      tau(   7) = (   0.4340973   0.2996264   0.0001599  )
         8        H      tau(   8) = (   0.5659027   0.7259445   0.0001599  )
         9        H      tau(   9) = (   0.9340973   0.2131590   0.3460372  )
        10        H      tau(  10) = (   0.0659027   0.8124119   0.3460372  )
        11        H      tau(  11) = (   0.7220603   0.3933629  -0.0000058  )
        12        H      tau(  12) = (   0.2779397   0.6322081  -0.0000058  )
        13        H      tau(  13) = (   0.2220603   0.1194226   0.3462029  )
        14        H      tau(  14) = (   0.7779397   0.9061483   0.3462029  )
        15        H      tau(  15) = (   0.6392499   0.1457279   0.5404125  )
        16        H      tau(  16) = (   0.3607501   0.8798430   0.5404125  )
        17        H      tau(  17) = (   0.1392499   0.3670576   0.4981787  )
        18        H      tau(  18) = (   0.8607501   0.6585133   0.4981787  )
        19        H      tau(  19) = (   0.3605328   0.8798946   0.1519977  )
        20        H      tau(  20) = (   0.6394672   0.1456763   0.1519977  )
        21        H      tau(  21) = (   0.8605328   0.6584617   0.1941994  )
        22        H      tau(  22) = (   0.1394672   0.3671092   0.1941994  )

     number of k points=    27
                       cart. coord. in units 2pi/alat
        k(    1) = (   0.0000000   0.0000000   0.0000000), wk =   0.0312500
        k(    2) = (   0.0000000   0.0000000   0.3610660), wk =   0.0625000
        k(    3) = (   0.0000000   0.0000000  -0.7221320), wk =   0.0312500
        k(    4) = (   0.0000000   0.2437667   0.0000000), wk =   0.0625000
        k(    5) = (   0.0000000   0.2437667   0.3610660), wk =   0.1250000
        k(    6) = (   0.0000000   0.2437667  -0.7221320), wk =   0.0625000
        k(    7) = (   0.0000000  -0.4875333   0.0000000), wk =   0.0312500
        k(    8) = (   0.0000000  -0.4875333   0.3610660), wk =   0.0625000
        k(    9) = (   0.0000000  -0.4875333  -0.7221320), wk =   0.0312500
        k(   10) = (   0.2500000   0.0000000   0.0000000), wk =   0.0625000
        k(   11) = (   0.2500000   0.0000000   0.3610660), wk =   0.1250000
        k(   12) = (   0.2500000   0.0000000  -0.7221320), wk =   0.0625000
        k(   13) = (   0.2500000   0.2437667   0.0000000), wk =   0.1250000
        k(   14) = (   0.2500000   0.2437667   0.3610660), wk =   0.2500000
        k(   15) = (   0.2500000   0.2437667  -0.7221320), wk =   0.1250000
        k(   16) = (   0.2500000  -0.4875333   0.0000000), wk =   0.0625000
        k(   17) = (   0.2500000  -0.4875333   0.3610660), wk =   0.1250000
        k(   18) = (   0.2500000  -0.4875333  -0.7221320), wk =   0.0625000
        k(   19) = (  -0.5000000   0.0000000   0.0000000), wk =   0.0312500
        k(   20) = (  -0.5000000   0.0000000   0.3610660), wk =   0.0625000
        k(   21) = (  -0.5000000   0.0000000  -0.7221320), wk =   0.0312500
        k(   22) = (  -0.5000000   0.2437667   0.0000000), wk =   0.0625000
        k(   23) = (  -0.5000000   0.2437667   0.3610660), wk =   0.1250000
        k(   24) = (  -0.5000000   0.2437667  -0.7221320), wk =   0.0625000
        k(   25) = (  -0.5000000  -0.4875333   0.0000000), wk =   0.0312500
        k(   26) = (  -0.5000000  -0.4875333   0.3610660), wk =   0.0625000
        k(   27) = (  -0.5000000  -0.4875333  -0.7221320), wk =   0.0312500

     Dense  grid:   539751 G-vectors     FFT dimensions: ( 120, 120,  80)

     Smooth grid:   190841 G-vectors     FFT dimensions: (  90,  90,  60)

     Estimated max dynamical RAM per process >     118.06 MB

     Estimated total dynamical RAM >       1.84 GB

     Initial potential from superposition of free atoms

     starting charge      47.9682, renormalised to      48.0000
     Starting wfcs are   42 randomized atomic wfcs

     total cpu time spent up to now is        4.8 secs

     Self-consistent Calculation

     iteration #  1     ecut=   100.00 Ry     beta= 0.70
     Davidson diagonalization with overlap
     ethr =  1.00E-02,  avg # of iterations =  2.0

     total cpu time spent up to now is       11.6 secs

     total energy              =    -155.92100935 Ry
     estimated scf accuracy    <       2.11050798 Ry

     iteration #  2     ecut=   100.00 Ry     beta= 0.70
     Davidson diagonalization with overlap
     ethr =  4.40E-03,  avg # of iterations =  2.0

     total cpu time spent up to now is       18.2 secs

     total energy              =    -156.40881875 Ry
     estimated scf accuracy    <       0.37197417 Ry

     iteration #  3     ecut=   100.00 Ry     beta= 0.70
     Davidson diagonalization with overlap
     ethr =  7.75E-04,  avg # of iterations =  2.0

     total cpu time spent up to now is       24.7 secs

     total energy              =    -156.47076356 Ry
     estimated scf accuracy    <       0.00492315 Ry

     iteration #  4     ecut=   100.00 Ry     beta= 0.70
     Davidson diagonalization with overlap
     ethr =  1.03E-05,  avg # of iterations =  5.1

     total cpu time spent up to now is       34.5 secs

     total energy              =    -156.47389872 Ry
     estimated scf accuracy    <       0.00168296 Ry

     iteration #  5     ecut=   100.00 Ry     beta= 0.70
     Davidson diagonalization with overlap
     ethr =  3.51E-06,  avg # of iterations =  3.0

     total cpu time spent up to now is       41.3 secs

     total energy              =    -156.47448038 Ry
     estimated scf accuracy    <       0.00016614 Ry

     iteration #  6     ecut=   100.00 Ry     beta= 0.70
     Davidson diagonalization with overlap
     ethr =  3.46E-07,  avg # of iterations =  4.0

     total cpu time spent up to now is       48.9 secs

     total energy              =    -156.47454374 Ry
     estimated scf accuracy    <       0.00000115 Ry

     iteration #  7     ecut=   100.00 Ry     beta= 0.70
     Davidson diagonalization with overlap
     ethr =  2.39E-09,  avg # of iterations =  9.0

     total cpu time spent up to now is       65.0 secs

     total energy              =    -156.47455241 Ry
     estimated scf accuracy    <       0.00000101 Ry

     iteration #  8     ecut=   100.00 Ry     beta= 0.70
     Davidson diagonalization with overlap
     ethr =  2.11E-09,  avg # of iterations =  2.0

     total cpu time spent up to now is       71.5 secs

     total energy              =    -156.47455268 Ry
     estimated scf accuracy    <       0.00000006 Ry

     iteration #  9     ecut=   100.00 Ry     beta= 0.70
     Davidson diagonalization with overlap
     ethr =  1.29E-10,  avg # of iterations =  4.5

     total cpu time spent up to now is       79.4 secs

     total energy              =    -156.47455269 Ry
     estimated scf accuracy    <          3.1E-09 Ry

     iteration # 10     ecut=   100.00 Ry     beta= 0.70
     Davidson diagonalization with overlap
     ethr =  6.51E-12,  avg # of iterations =  5.5

     total cpu time spent up to now is       88.3 secs

     total energy              =    -156.47455270 Ry
     estimated scf accuracy    <          1.8E-09 Ry

     iteration # 11     ecut=   100.00 Ry     beta= 0.70
     Davidson diagonalization with overlap
     ethr =  3.71E-12,  avg # of iterations =  2.2

     total cpu time spent up to now is       94.9 secs

     End of self-consistent calculation

          k = 0.0000 0.0000 0.0000 ( 23847 PWs)   bands (ev):

   -23.6756 -23.6654  -9.2706  -9.1726  -8.9556  -8.9120  -8.8838  -8.8132
    -5.9551  -4.9767  -4.2344  -4.0921  -1.6478  -0.7215  -0.6258  -0.2917
     0.1007   0.1265   0.1820   0.2931   0.4654   0.8897   0.9025   0.9455

          k = 0.0000 0.0000 0.3611 ( 23838 PWs)   bands (ev):

   -23.6668 -23.6596  -9.1654  -9.1651  -9.1398  -9.0984  -8.9352  -8.9113
    -5.4166  -4.6905  -4.4274  -4.3398  -1.2450  -0.9835  -0.5276  -0.4769
    -0.3205  -0.1945   0.1841   0.4819   0.6736   0.7216   0.8032   0.9526

          k = 0.0000 0.0000-0.7221 ( 23908 PWs)   bands (ev):

   -23.6559 -23.6559  -9.4057  -9.4054  -9.0047  -9.0047  -8.9446  -8.9446
    -4.6698  -4.6694  -4.6076  -4.6071  -1.0083  -1.0078  -0.9967  -0.9950
     0.0843   0.0852   0.1847   0.1865   0.7691   0.7693   0.7836   0.7838

          k = 0.0000 0.2438 0.0000 ( 23835 PWs)   bands (ev):

   -23.6741 -23.6669  -9.2387  -9.1384  -9.0173  -8.9521  -8.8732  -8.8233
    -5.7412  -4.8783  -4.5413  -4.2327  -1.2661  -0.8195  -0.7962   0.0015
     0.0227   0.0393   0.3432   0.4722   0.5499   0.5612   0.7980   0.8733

          k = 0.0000 0.2438 0.3611 ( 23847 PWs)   bands (ev):

   -23.6658 -23.6606  -9.2167  -9.1742  -9.0825  -9.0667  -8.9462  -8.9362
    -5.3078  -4.7706  -4.4689  -4.3798  -1.0502  -1.0086  -0.8184  -0.2246
    -0.1803   0.0150   0.0310   0.5368   0.6076   0.6630   0.7674   0.8256

          k = 0.0000 0.2438-0.7221 ( 23846 PWs)   bands (ev):

   -23.6559 -23.6559  -9.4206  -9.4205  -8.9835  -8.9835  -8.9437  -8.9437
    -4.9887  -4.9886  -4.2754  -4.2753  -1.1397  -1.1390  -0.8064  -0.8056
     0.1666   0.1668   0.2217   0.2233   0.5870   0.5871   0.7773   0.7775

          k = 0.0000-0.4875 0.0000 ( 23834 PWs)   bands (ev):

   -23.6705 -23.6705  -9.1471  -9.1471  -9.0434  -9.0434  -8.8480  -8.8480
    -5.2110  -5.2110  -4.5418  -4.5418  -0.9468  -0.9468  -0.3117  -0.3117
    -0.0641  -0.0641   0.4616   0.4616   0.6008   0.6008   0.7233   0.7233

          k = 0.0000-0.4875 0.3611 ( 23818 PWs)   bands (ev):

   -23.6632 -23.6632  -9.2166  -9.2166  -9.0176  -9.0176  -8.9808  -8.9808
    -5.0376  -5.0376  -4.4510  -4.4510  -0.9936  -0.9936  -0.5759  -0.5759
     0.0739   0.0739   0.3644   0.3644   0.5194   0.5194   0.7409   0.7409

          k = 0.0000-0.4875-0.7221 ( 23820 PWs)   bands (ev):

   -23.6559 -23.6559  -9.4343  -9.4343  -8.9655  -8.9655  -8.9406  -8.9406
    -5.1305  -5.1305  -4.1203  -4.1203  -1.2351  -1.2351  -0.5436  -0.5436
     0.0834   0.0834   0.2963   0.2963   0.3851   0.3851   0.8152   0.8152

          k = 0.2500 0.0000 0.0000 ( 23882 PWs)   bands (ev):

   -23.6741 -23.6668  -9.2274  -9.1525  -9.0048  -8.9723  -8.8732  -8.8233
    -5.7503  -5.0005  -4.2816  -4.2598  -1.4489  -0.5655  -0.5404  -0.4207
     0.1475   0.1887   0.2517   0.3186   0.4205   0.4474   0.8511   0.8874

          k = 0.2500 0.0000 0.3611 ( 23851 PWs)   bands (ev):

   -23.6657 -23.6606  -9.2070  -9.1874  -9.1143  -9.0401  -8.9642  -8.9228
    -5.2593  -4.6681  -4.4782  -4.4645  -1.2163  -0.9675  -0.8216  -0.2739
    -0.2657   0.0262   0.2557   0.3949   0.5422   0.6721   0.8716   0.9024

          k = 0.2500 0.0000-0.7221 ( 23866 PWs)   bands (ev):

   -23.6559 -23.6559  -9.4261  -9.4259  -8.9889  -8.9888  -8.9410  -8.9409
    -4.7777  -4.7773  -4.4658  -4.4655  -1.4971  -1.4966  -0.5295  -0.5290
     0.0820   0.0824   0.4353   0.4366   0.5627   0.5627   0.8141   0.8145

          k = 0.2500 0.2438 0.0000 ( 23836 PWs)   bands (ev):

   -23.6730 -23.6679  -9.2590  -9.1257  -9.0645  -8.9195  -8.8656  -8.8302
    -5.6020  -4.9557  -4.5447  -4.2888  -1.1469  -0.7965  -0.5828  -0.1078
    -0.0372   0.0150   0.3294   0.4818   0.4948   0.5813   0.6480   0.8023

          k = 0.2500 0.2438 0.3611 ( 23877 PWs)   bands (ev):

   -23.6650 -23.6613  -9.2101  -9.1653  -9.1568  -9.0171  -8.9774  -8.9149
    -5.1683  -4.7145  -4.5599  -4.4597  -1.1799  -0.9355  -0.8325  -0.2607
    -0.1014   0.0835   0.1873   0.4169   0.5178   0.6339   0.7909   0.8796

          k = 0.2500 0.2438-0.7221 ( 23876 PWs)   bands (ev):

   -23.6558 -23.6558  -9.4336  -9.4073  -9.0138  -8.9676  -8.9496  -8.9414
    -5.0030  -4.8016  -4.4326  -4.2251  -1.4730  -1.3850  -0.6059  -0.4843
     0.0291   0.0337   0.4033   0.4758   0.5706   0.6223   0.7611   0.7900

          k = 0.2500-0.4875 0.0000 ( 23822 PWs)   bands (ev):

   -23.6704 -23.6704  -9.2314  -9.2314  -8.9590  -8.9590  -8.8476  -8.8476
    -5.2226  -5.2226  -4.5174  -4.5174  -0.8524  -0.8524  -0.3214  -0.3214
    -0.1055  -0.1055   0.3891   0.3891   0.6422   0.6422   0.6573   0.6573

          k = 0.2500-0.4875 0.3611 ( 23840 PWs)   bands (ev):

   -23.6631 -23.6631  -9.2036  -9.2036  -9.0892  -9.0892  -8.9309  -8.9309
    -4.9426  -4.9426  -4.5241  -4.5241  -1.0882  -1.0882  -0.4917  -0.4917
     0.0439   0.0439   0.3809   0.3809   0.5321   0.5321   0.7620   0.7620

          k = 0.2500-0.4875-0.7221 ( 23844 PWs)   bands (ev):

   -23.6558 -23.6558  -9.4161  -9.4161  -8.9934  -8.9934  -8.9481  -8.9481
    -5.0110  -5.0110  -4.2079  -4.2079  -1.3544  -1.3544  -0.6080  -0.6080
     0.1507   0.1507   0.2824   0.2824   0.6192   0.6192   0.7775   0.7775

          k =-0.5000 0.0000 0.0000 ( 23860 PWs)   bands (ev):

   -23.6704 -23.6704  -9.1206  -9.1206  -9.0801  -9.0801  -8.8480  -8.8480
    -5.2960  -5.2960  -4.3628  -4.3628  -1.0101  -1.0101  -0.1888  -0.1888
     0.1908   0.1908   0.2039   0.2039   0.2971   0.2971   0.7327   0.7327

          k =-0.5000 0.0000 0.3611 ( 23836 PWs)   bands (ev):

   -23.6631 -23.6631  -9.2213  -9.2213  -9.0426  -9.0426  -8.9641  -8.9641
    -4.8912  -4.8912  -4.5421  -4.5421  -1.1420  -1.1420  -0.5564  -0.5564
     0.0472   0.0472   0.2455   0.2455   0.6350   0.6350   0.8588   0.8588

          k =-0.5000 0.0000-0.7221 ( 23856 PWs)   bands (ev):

   -23.6558 -23.6558  -9.4449  -9.4449  -8.9759  -8.9759  -8.9359  -8.9359
    -4.8293  -4.8293  -4.3770  -4.3770  -1.7174  -1.7174  -0.2131  -0.2131
     0.0801   0.0801   0.2500   0.2500   0.7595   0.7595   0.7669   0.7669

          k =-0.5000 0.2438 0.0000 ( 23866 PWs)   bands (ev):

   -23.6704 -23.6704  -9.2296  -9.2296  -8.9658  -8.9658  -8.8476  -8.8476
    -5.2677  -5.2677  -4.4253  -4.4253  -0.8988  -0.8988  -0.1954  -0.1954
    -0.0361  -0.0361   0.1618   0.1618   0.5482   0.5482   0.7127   0.7127

          k =-0.5000 0.2438 0.3611 ( 23858 PWs)   bands (ev):

   -23.6631 -23.6631  -9.2068  -9.2068  -9.0938  -9.0938  -8.9296  -8.9296
    -4.8481  -4.8481  -4.5906  -4.5906  -1.1480  -1.1480  -0.5250  -0.5250
     0.0819   0.0819   0.2926   0.2926   0.6275   0.6275   0.7875   0.7875

          k =-0.5000 0.2438-0.7221 ( 23888 PWs)   bands (ev):

   -23.6558 -23.6558  -9.4219  -9.4219  -8.9964  -8.9964  -8.9473  -8.9473
    -4.8421  -4.8421  -4.3545  -4.3545  -1.6083  -1.6083  -0.4343  -0.4343
     0.1250   0.1250   0.3284   0.3284   0.6879   0.6879   0.8338   0.8338

          k =-0.5000-0.4875 0.0000 ( 23836 PWs)   bands (ev):

   -23.6704 -23.6704  -9.2806  -9.2806  -8.9095  -8.9095  -8.8472  -8.8472
    -5.2357  -5.2357  -4.4903  -4.4903  -0.7407  -0.7407  -0.3501  -0.3501
    -0.1428  -0.1428   0.3531   0.3531   0.5547   0.5547   0.6795   0.6795

          k =-0.5000-0.4875 0.3611 ( 23876 PWs)   bands (ev):

   -23.6631 -23.6631  -9.1778  -9.1778  -9.1450  -9.1450  -8.9095  -8.9095
    -4.7782  -4.7782  -4.6656  -4.6656  -1.1368  -1.1368  -0.5630  -0.5630
     0.2391   0.2391   0.3798   0.3798   0.5285   0.5285   0.6958   0.6958

          k =-0.5000-0.4875-0.7221 ( 23880 PWs)   bands (ev):

   -23.6558 -23.6558  -9.3956  -9.3956  -9.0237  -9.0237  -8.9551  -8.9551
    -4.8546  -4.8546  -4.3319  -4.3319  -1.4420  -1.4420  -0.7409  -0.7409
     0.3592   0.3592   0.4060   0.4060   0.5526   0.5526   0.7981   0.7981

     highest occupied level (ev):     0.9526

!    total energy              =    -156.47455270 Ry
     estimated scf accuracy    <          5.5E-11 Ry

     The total energy is the sum of the following terms:
     one-electron contribution =     -20.91441581 Ry
     hartree contribution      =      25.14507749 Ry
     xc contribution           =     -49.19674379 Ry
     ewald contribution        =    -111.50847058 Ry

     convergence has been achieved in  11 iterations

     Forces acting on atoms (cartesian axes, Ry/au):

     atom    1 type  2   force =     0.00000000    0.00000000    0.00001385
     atom    2 type  2   force =     0.00000000    0.00000000   -0.00001385
     atom    3 type  1   force =    -0.00006784   -0.00032754   -0.00001219
     atom    4 type  1   force =     0.00006784    0.00032754   -0.00001219
     atom    5 type  1   force =    -0.00006784    0.00032754    0.00001219
     atom    6 type  1   force =     0.00006784   -0.00032754    0.00001219
     atom    7 type  3   force =    -0.00273727    0.00068782   -0.00001567
     atom    8 type  3   force =     0.00273727   -0.00068782   -0.00001567
     atom    9 type  3   force =    -0.00273727   -0.00068782    0.00001567
     atom   10 type  3   force =     0.00273727    0.00068782    0.00001567
     atom   11 type  3   force =     0.00180436    0.00218528    0.00000516
     atom   12 type  3   force =    -0.00180436   -0.00218528    0.00000516
     atom   13 type  3   force =     0.00180436   -0.00218528   -0.00000516
     atom   14 type  3   force =    -0.00180436    0.00218528   -0.00000516
     atom   15 type  3   force =     0.00036035   -0.00161522   -0.00244351
     atom   16 type  3   force =    -0.00036035    0.00161522   -0.00244351
     atom   17 type  3   force =     0.00036035    0.00161522    0.00244351
     atom   18 type  3   force =    -0.00036035   -0.00161522    0.00244351
     atom   19 type  3   force =    -0.00031590    0.00159578    0.00243302
     atom   20 type  3   force =     0.00031590   -0.00159578    0.00243302
     atom   21 type  3   force =    -0.00031590   -0.00159578   -0.00243302
     atom   22 type  3   force =     0.00031590    0.00159578   -0.00243302

     Total force =     0.011556     Total SCF correction =     0.000004


     Computing stress (Cartesian axis) and pressure

          total   stress  (Ry/bohr**3)                   (kbar)     P=        6.25
   0.00003943   0.00000000   0.00000000            5.80        0.00        0.00
   0.00000000   0.00004022   0.00000000            0.00        5.92        0.00
   0.00000000   0.00000000   0.00004774            0.00        0.00        7.02

     Volume is kept fixed: isostatic pressure set to zero

     BFGS Geometry Optimization
     Energy error            =      0.0E+00 Ry
     Gradient error          =      2.7E-03 Ry/Bohr
     Cell gradient error     =      7.8E-01 kbar

     number of scf cycles    =   1
     number of bfgs steps    =   0

     enthalpy           new  =    -156.4745526972 Ry

     new trust radius        =       0.0029511882 bohr
ibrav =      8
 celldm(1) =     12.57604462
 celldm(2) =      1.02559124
 celldm(3) =      0.69253801
Input lattice vectors:
     0.99992415     0.00000000     0.00000000
     0.00000000     1.02551346     0.00000000
     0.00000000     0.00000000     0.69248548
New lattice vectors in INITIAL alat:
     0.99992415     0.00000000     0.00000000
     0.00000000     1.02551346     0.00000000
     0.00000000     0.00000000     0.69248548
New lattice vectors in NEW alat (for information only):
     1.00000000     0.00000000     0.00000000
     0.00000000     1.02559124     0.00000000
     0.00000000     0.00000000     0.69253801
Discrepancy in bohr =     0.000000    0.000000    0.000000
     new conv_thr            =            1.0E-10 Ry

     new unit-cell volume =   1412.70059 a.u.^3 (   209.34063 Ang^3 )
     density =      2.64957 g/cm^3

CELL_PARAMETERS (alat= 12.57699853)
   0.999924155   0.000000000   0.000000000
   0.000000000   1.025513456   0.000000000
   0.000000000   0.000000000   0.692485481

ATOMIC_POSITIONS (crystal)
Ba               0.5000000000        0.5000000000        0.5001007557
Ba               0.0000000000        0.0000000000        0.9998992443
B                0.6102516223        0.2391769866        0.0000642576
B                0.3897483777        0.7608230134        0.0000642576
B                0.1102516223        0.2608230134        0.4999357424
B                0.8897483777        0.7391769866        0.4999357424
H                0.4338796111        0.2922090541        0.0002291336
H                0.5661203889        0.7077909459        0.0002291336
H                0.9338796111        0.2077909459        0.4997708664
H                0.0661203889        0.7922090541        0.4997708664
H                0.7222037329        0.3837244290       -0.0000077789
H                0.2777962671        0.6162755710       -0.0000077789
H                0.2222037329        0.1162755710        0.5000077789
H                0.7777962671        0.8837244290        0.5000077789
H                0.6392785758        0.1419691705        0.7802178168
H                0.3607214242        0.8580308295        0.7802178168
H                0.1392785758        0.3580308295        0.7197821832
H                0.8607214242        0.6419691705        0.7197821832
H                0.3605077132        0.8580796319        0.2198042407
H                0.6394922868        0.1419203681        0.2198042407
H                0.8605077132        0.6419203681        0.2801957593
H                0.1394922868        0.3580796319        0.2801957593



     Writing config-only to output data dir ./pwscf.save/ :
     XML data file
     NEW-OLD atomic charge density approx. for the potential

     total cpu time spent up to now is      102.7 secs

     Self-consistent Calculation

     iteration #  1     ecut=   100.00 Ry     beta= 0.70
     Davidson diagonalization with overlap
     ethr =  1.00E-06,  avg # of iterations =  2.0

     Threshold (ethr) on eigenvalues was too large:
     Diagonalizing with lowered threshold

     Davidson diagonalization with overlap
     ethr =  5.34E-08,  avg # of iterations =  2.0

     total cpu time spent up to now is      114.9 secs

     total energy              =    -156.47465052 Ry
     estimated scf accuracy    <       0.00003277 Ry

     iteration #  2     ecut=   100.00 Ry     beta= 0.70
     Davidson diagonalization with overlap
     ethr =  6.83E-08,  avg # of iterations =  2.0

     total cpu time spent up to now is      121.4 secs

     total energy              =    -156.47465974 Ry
     estimated scf accuracy    <       0.00000649 Ry

     iteration #  3     ecut=   100.00 Ry     beta= 0.70
     Davidson diagonalization with overlap
     ethr =  1.35E-08,  avg # of iterations =  2.0

     total cpu time spent up to now is      127.9 secs

     total energy              =    -156.47466062 Ry
     estimated scf accuracy    <       0.00000008 Ry

     iteration #  4     ecut=   100.00 Ry     beta= 0.70
     Davidson diagonalization with overlap
     ethr =  1.73E-10,  avg # of iterations =  3.0

     total cpu time spent up to now is      136.1 secs

     total energy              =    -156.47466066 Ry
     estimated scf accuracy    <       0.00000006 Ry

     iteration #  5     ecut=   100.00 Ry     beta= 0.70
     Davidson diagonalization with overlap
     ethr =  1.23E-10,  avg # of iterations =  2.0

     total cpu time spent up to now is      142.6 secs

     total energy              =    -156.47466067 Ry
     estimated scf accuracy    <          2.1E-09 Ry

     iteration #  6     ecut=   100.00 Ry     beta= 0.70
     Davidson diagonalization with overlap
     ethr =  4.33E-12,  avg # of iterations =  4.5

     total cpu time spent up to now is      150.6 secs

     total energy              =    -156.47466067 Ry
     estimated scf accuracy    <          5.8E-10 Ry

     iteration #  7     ecut=   100.00 Ry     beta= 0.70
     Davidson diagonalization with overlap
     ethr =  1.21E-12,  avg # of iterations =  3.9

     total cpu time spent up to now is      158.1 secs

     End of self-consistent calculation

          k = 0.0000 0.0000 0.0000 ( 23847 PWs)   bands (ev):

   -23.6729 -23.6627  -9.2678  -9.1700  -8.9530  -8.9095  -8.8814  -8.8107
    -5.9498  -4.9681  -4.2262  -4.0833  -1.6480  -0.7181  -0.6241  -0.2864
     0.1051   0.1284   0.1851   0.2973   0.4691   0.8959   0.9087   0.9522

          k = 0.0000 0.0000 0.3610 ( 23838 PWs)   bands (ev):

   -23.6641 -23.6569  -9.1626  -9.1624  -9.1370  -9.0959  -8.9327  -8.9088
    -5.4111  -4.6822  -4.4188  -4.3308  -1.2456  -0.9829  -0.5269  -0.4733
    -0.3173  -0.1912   0.1885   0.4873   0.6793   0.7277   0.8084   0.9588

          k = 0.0000 0.0000-0.7220 ( 23908 PWs)   bands (ev):

   -23.6532 -23.6532  -9.4026  -9.4024  -9.0022  -9.0022  -8.9421  -8.9421
    -4.6628  -4.6624  -4.5985  -4.5980  -1.0082  -1.0077  -0.9967  -0.9951
     0.0890   0.0898   0.1892   0.1910   0.7752   0.7754   0.7893   0.7895

          k = 0.0000 0.2438 0.0000 ( 23835 PWs)   bands (ev):

   -23.6714 -23.6641  -9.2358  -9.1358  -9.0147  -8.9496  -8.8708  -8.8208
    -5.7358  -4.8696  -4.5341  -4.2240  -1.2651  -0.8179  -0.7936   0.0053
     0.0261   0.0448   0.3466   0.4762   0.5554   0.5653   0.8041   0.8793

          k = 0.0000 0.2438 0.3610 ( 23847 PWs)   bands (ev):

   -23.6630 -23.6579  -9.2140  -9.1714  -9.0797  -9.0642  -8.9437  -8.9337
    -5.3019  -4.7625  -4.4607  -4.3710  -1.0502  -1.0081  -0.8172  -0.2219
    -0.1768   0.0199   0.0347   0.5421   0.6130   0.6688   0.7729   0.8314

          k = 0.0000 0.2438-0.7220 ( 23846 PWs)   bands (ev):

   -23.6532 -23.6532  -9.4176  -9.4174  -8.9811  -8.9811  -8.9411  -8.9411
    -4.9806  -4.9806  -4.2673  -4.2673  -1.1397  -1.1390  -0.8061  -0.8053
     0.1713   0.1715   0.2263   0.2279   0.5923   0.5924   0.7833   0.7835

          k = 0.0000-0.4876 0.0000 ( 23834 PWs)   bands (ev):

   -23.6677 -23.6677  -9.1442  -9.1442  -9.0409  -9.0409  -8.8456  -8.8456
    -5.2048  -5.2048  -4.5333  -4.5333  -0.9454  -0.9454  -0.3082  -0.3082
    -0.0606  -0.0606   0.4676   0.4676   0.6051   0.6051   0.7286   0.7286

          k = 0.0000-0.4876 0.3610 ( 23818 PWs)   bands (ev):

   -23.6605 -23.6605  -9.2138  -9.2138  -9.0148  -9.0148  -8.9784  -8.9784
    -5.0307  -5.0307  -4.4426  -4.4426  -0.9932  -0.9932  -0.5739  -0.5739
     0.0782   0.0782   0.3687   0.3687   0.5252   0.5252   0.7464   0.7464

          k = 0.0000-0.4876-0.7220 ( 23820 PWs)   bands (ev):

   -23.6532 -23.6532  -9.4313  -9.4313  -8.9631  -8.9631  -8.9381  -8.9381
    -5.1224  -5.1224  -4.1124  -4.1124  -1.2351  -1.2351  -0.5432  -0.5432
     0.0884   0.0884   0.3006   0.3006   0.3905   0.3905   0.8212   0.8212

          k = 0.2500 0.0000 0.0000 ( 23882 PWs)   bands (ev):

   -23.6714 -23.6641  -9.2246  -9.1499  -9.0022  -8.9698  -8.8708  -8.8208
    -5.7448  -4.9924  -4.2733  -4.2514  -1.4488  -0.5629  -0.5383  -0.4167
     0.1513   0.1925   0.2554   0.3231   0.4247   0.4525   0.8573   0.8940

          k = 0.2500 0.0000 0.3610 ( 23851 PWs)   bands (ev):

   -23.6630 -23.6579  -9.2043  -9.1846  -9.1116  -9.0375  -8.9617  -8.9203
    -5.2535  -4.6600  -4.4696  -4.4559  -1.2170  -0.9662  -0.8214  -0.2707
    -0.2618   0.0300   0.2607   0.3999   0.5475   0.6774   0.8778   0.9081

          k = 0.2500 0.0000-0.7220 ( 23866 PWs)   bands (ev):

   -23.6532 -23.6532  -9.4230  -9.4229  -8.9864  -8.9864  -8.9385  -8.9384
    -4.7691  -4.7687  -4.4582  -4.4578  -1.4979  -1.4973  -0.5284  -0.5280
     0.0867   0.0871   0.4401   0.4414   0.5680   0.5680   0.8201   0.8205

          k = 0.2500 0.2438 0.0000 ( 23836 PWs)   bands (ev):

   -23.6703 -23.6652  -9.2562  -9.1229  -9.0620  -8.9170  -8.8632  -8.8278
    -5.5962  -4.9477  -4.5370  -4.2806  -1.1456  -0.7946  -0.5799  -0.1043
    -0.0338   0.0185   0.3345   0.4859   0.5001   0.5857   0.6539   0.8080

          k = 0.2500 0.2438 0.3610 ( 23877 PWs)   bands (ev):

   -23.6623 -23.6586  -9.2074  -9.1625  -9.1542  -9.0144  -8.9749  -8.9124
    -5.1621  -4.7063  -4.5521  -4.4511  -1.1801  -0.9352  -0.8309  -0.2573
    -0.0977   0.0876   0.1920   0.4217   0.5232   0.6395   0.7967   0.8853

          k = 0.2500 0.2438-0.7220 ( 23876 PWs)   bands (ev):

   -23.6531 -23.6531  -9.4306  -9.4043  -9.0114  -8.9652  -8.9471  -8.9388
    -4.9947  -4.7934  -4.4247  -4.2173  -1.4737  -1.3858  -0.6045  -0.4833
     0.0337   0.0383   0.4078   0.4806   0.5762   0.6279   0.7667   0.7962

          k = 0.2500-0.4876 0.0000 ( 23822 PWs)   bands (ev):

   -23.6677 -23.6677  -9.2286  -9.2286  -8.9564  -8.9564  -8.8451  -8.8451
    -5.2159  -5.2159  -4.5095  -4.5095  -0.8503  -0.8503  -0.3179  -0.3179
    -0.1022  -0.1022   0.3939   0.3939   0.6467   0.6467   0.6630   0.6630

          k = 0.2500-0.4876 0.3610 ( 23840 PWs)   bands (ev):

   -23.6604 -23.6604  -9.2009  -9.2009  -9.0865  -9.0865  -8.9283  -8.9283
    -4.9355  -4.9355  -4.5159  -4.5159  -1.0880  -1.0880  -0.4890  -0.4890
     0.0479   0.0479   0.3858   0.3858   0.5375   0.5375   0.7677   0.7677

          k = 0.2500-0.4876-0.7220 ( 23844 PWs)   bands (ev):

   -23.6531 -23.6531  -9.4131  -9.4131  -8.9909  -8.9909  -8.9456  -8.9456
    -5.0028  -5.0028  -4.1999  -4.1999  -1.3551  -1.3551  -0.6067  -0.6067
     0.1556   0.1556   0.2867   0.2867   0.6248   0.6248   0.7835   0.7835

          k =-0.5000 0.0000 0.0000 ( 23860 PWs)   bands (ev):

   -23.6677 -23.6677  -9.1178  -9.1178  -9.0777  -9.0777  -8.8456  -8.8456
    -5.2895  -5.2895  -4.3542  -4.3542  -1.0092  -1.0092  -0.1855  -0.1855
     0.1939   0.1939   0.2092   0.2092   0.3017   0.3017   0.7390   0.7390

          k =-0.5000 0.0000 0.3610 ( 23836 PWs)   bands (ev):

   -23.6604 -23.6604  -9.2186  -9.2186  -9.0399  -9.0399  -8.9616  -8.9616
    -4.8845  -4.8845  -4.5334  -4.5334  -1.1423  -1.1423  -0.5541  -0.5541
     0.0517   0.0517   0.2502   0.2502   0.6402   0.6402   0.8648   0.8648

          k =-0.5000 0.0000-0.7220 ( 23856 PWs)   bands (ev):

   -23.6531 -23.6531  -9.4419  -9.4419  -8.9735  -8.9735  -8.9334  -8.9334
    -4.8204  -4.8204  -4.3696  -4.3696  -1.7185  -1.7185  -0.2117  -0.2117
     0.0848   0.0848   0.2549   0.2549   0.7647   0.7647   0.7731   0.7731

          k =-0.5000 0.2438 0.0000 ( 23866 PWs)   bands (ev):

   -23.6677 -23.6677  -9.2269  -9.2269  -8.9633  -8.9633  -8.8451  -8.8451
    -5.2609  -5.2609  -4.4173  -4.4173  -0.8969  -0.8969  -0.1920  -0.1920
    -0.0328  -0.0328   0.1665   0.1665   0.5526   0.5526   0.7187   0.7187

          k =-0.5000 0.2438 0.3610 ( 23858 PWs)   bands (ev):

   -23.6604 -23.6604  -9.2041  -9.2041  -9.0911  -9.0911  -8.9271  -8.9271
    -4.8411  -4.8411  -4.5822  -4.5822  -1.1481  -1.1481  -0.5224  -0.5224
     0.0862   0.0862   0.2974   0.2974   0.6329   0.6329   0.7931   0.7931

          k =-0.5000 0.2438-0.7220 ( 23888 PWs)   bands (ev):

   -23.6531 -23.6531  -9.4189  -9.4189  -8.9939  -8.9939  -8.9448  -8.9448
    -4.8334  -4.8334  -4.3468  -4.3468  -1.6094  -1.6094  -0.4326  -0.4326
     0.1293   0.1293   0.3335   0.3335   0.6935   0.6935   0.8397   0.8397

          k =-0.5000-0.4876 0.0000 ( 23836 PWs)   bands (ev):

   -23.6677 -23.6677  -9.2779  -9.2779  -8.9069  -8.9069  -8.8447  -8.8447
    -5.2284  -5.2284  -4.4830  -4.4830  -0.7372  -0.7372  -0.3477  -0.3477
    -0.1396  -0.1396   0.3580   0.3580   0.5600   0.5600   0.6841   0.6841

          k =-0.5000-0.4876 0.3610 ( 23876 PWs)   bands (ev):

   -23.6604 -23.6604  -9.1752  -9.1752  -9.1422  -9.1422  -8.9070  -8.9070
    -4.7708  -4.7708  -4.6577  -4.6577  -1.1368  -1.1368  -0.5602  -0.5602
     0.2433   0.2433   0.3854   0.3854   0.5338   0.5338   0.7008   0.7008

          k =-0.5000-0.4876-0.7220 ( 23880 PWs)   bands (ev):

   -23.6531 -23.6531  -9.3926  -9.3926  -9.0213  -9.0213  -8.9526  -8.9526
    -4.8462  -4.8462  -4.3240  -4.3240  -1.4431  -1.4431  -0.7395  -0.7395
     0.3642   0.3642   0.4116   0.4116   0.5576   0.5576   0.8036   0.8036

     highest occupied level (ev):     0.9588

!    total energy              =    -156.47466067 Ry
     estimated scf accuracy    <          9.5E-12 Ry

     The total energy is the sum of the following terms:
     one-electron contribution =     -20.82749689 Ry
     hartree contribution      =      25.10187911 Ry
     xc contribution           =     -49.18593661 Ry
     ewald contribution        =    -111.56310628 Ry

     convergence has been achieved in   7 iterations

     Forces acting on atoms (cartesian axes, Ry/au):

     atom    1 type  2   force =     0.00000000    0.00000000    0.00001151
     atom    2 type  2   force =     0.00000000    0.00000000   -0.00001151
     atom    3 type  1   force =    -0.00008685   -0.00036071   -0.00001152
     atom    4 type  1   force =     0.00008685    0.00036071   -0.00001152
     atom    5 type  1   force =    -0.00008685    0.00036071    0.00001152
     atom    6 type  1   force =     0.00008685   -0.00036071    0.00001152
     atom    7 type  3   force =    -0.00169004    0.00037589   -0.00001731
     atom    8 type  3   force =     0.00169004   -0.00037589   -0.00001731
     atom    9 type  3   force =    -0.00169004   -0.00037589    0.00001731
     atom   10 type  3   force =     0.00169004    0.00037589    0.00001731
     atom   11 type  3   force =     0.00111088    0.00125509    0.00000483
     atom   12 type  3   force =    -0.00111088   -0.00125509    0.00000483
     atom   13 type  3   force =     0.00111088   -0.00125509   -0.00000483
     atom   14 type  3   force =    -0.00111088    0.00125509   -0.00000483
     atom   15 type  3   force =     0.00017553   -0.00098540   -0.00142844
     atom   16 type  3   force =    -0.00017553    0.00098540   -0.00142844
     atom   17 type  3   force =     0.00017553    0.00098540    0.00142844
     atom   18 type  3   force =    -0.00017553   -0.00098540    0.00142844
     atom   19 type  3   force =    -0.00013186    0.00096832    0.00142029
     atom   20 type  3   force =     0.00013186   -0.00096832    0.00142029
     atom   21 type  3   force =    -0.00013186   -0.00096832   -0.00142029
     atom   22 type  3   force =     0.00013186    0.00096832   -0.00142029

     Total force =     0.006917     Total SCF correction =     0.000002


     Computing stress (Cartesian axis) and pressure

          total   stress  (Ry/bohr**3)                   (kbar)     P=        4.84
   0.00003072   0.00000000   0.00000000            4.52        0.00        0.00
   0.00000000   0.00003105   0.00000000            0.00        4.57        0.00
   0.00000000   0.00000000   0.00003704            0.00        0.00        5.45

     Volume is kept fixed: isostatic pressure set to zero
     Energy error            =      1.1E-04 Ry
     Gradient error          =      1.7E-03 Ry/Bohr
     Cell gradient error     =      6.0E-01 kbar

     number of scf cycles    =   2
     number of bfgs steps    =   1

     enthalpy           old  =    -156.4745526972 Ry
     enthalpy           new  =    -156.4746606672 Ry

     CASE: enthalpy          _new < enthalpy          _old

     new trust radius        =       0.0032465424 bohr
ibrav =      8
 celldm(1) =     12.57474971
 celldm(2) =      1.02560693
 celldm(3) =      0.69274138
Input lattice vectors:
     0.99982120     0.00000000     0.00000000
     0.00000000     1.02542355     0.00000000
     0.00000000     0.00000000     0.69261751
New lattice vectors in INITIAL alat:
     0.99982120     0.00000000     0.00000000
     0.00000000     1.02542355     0.00000000
     0.00000000     0.00000000     0.69261751
New lattice vectors in NEW alat (for information only):
     1.00000000     0.00000000     0.00000000
     0.00000000     1.02560693     0.00000000
     0.00000000     0.00000000     0.69274138
Discrepancy in bohr =     0.000000    0.000000    0.000000
     new conv_thr            =            1.1E-11 Ry

     new unit-cell volume =   1412.70059 a.u.^3 (   209.34063 Ang^3 )
     density =      2.64957 g/cm^3

CELL_PARAMETERS (alat= 12.57699853)
   0.999821196   0.000000000   0.000000000
   0.000000000   1.025423547   0.000000000
   0.000000000   0.000000000   0.692617514

ATOMIC_POSITIONS (crystal)
Ba               0.5000000000        0.5000000000        0.5001032115
Ba               0.0000000000        0.0000000000        0.9998967885
B                0.6102388199        0.2391251145        0.0000618020
B                0.3897611801        0.7608748855        0.0000618020
B                0.1102388199        0.2608748855        0.4999381980
B                0.8897611801        0.7391251145        0.4999381980
H                0.4336296235        0.2922633179        0.0002254468
H                0.5663703765        0.7077366821        0.0002254468
H                0.9336296235        0.2077366821        0.4997745532
H                0.0663703765        0.7922633179        0.4997745532
H                0.7223680565        0.3839055465       -0.0000067499
H                0.2776319435        0.6160944535       -0.0000067499
H                0.2223680565        0.1160944535        0.5000067499
H                0.7776319435        0.8839055465        0.5000067499
H                0.6393045864        0.1418270321        0.7799124748
H                0.3606954136        0.8581729679        0.7799124748
H                0.1393045864        0.3581729679        0.7200875252
H                0.8606954136        0.6418270321        0.7200875252
H                0.3604881455        0.8582193121        0.2201078427
H                0.6395118545        0.1417806879        0.2201078427
H                0.8604881455        0.6417806879        0.2798921573
H                0.1395118545        0.3582193121        0.2798921573



     Writing config-only to output data dir ./pwscf.save/ :
     XML data file
     NEW-OLD atomic charge density approx. for the potential

     total cpu time spent up to now is      165.9 secs

     Self-consistent Calculation

     iteration #  1     ecut=   100.00 Ry     beta= 0.70
     Davidson diagonalization with overlap
     ethr =  1.00E-06,  avg # of iterations =  2.0

     Threshold (ethr) on eigenvalues was too large:
     Diagonalizing with lowered threshold

     Davidson diagonalization with overlap
     ethr =  6.49E-08,  avg # of iterations =  2.0

     total cpu time spent up to now is      178.1 secs

     total energy              =    -156.47470574 Ry
     estimated scf accuracy    <       0.00004034 Ry

     iteration #  2     ecut=   100.00 Ry     beta= 0.70
     Davidson diagonalization with overlap
     ethr =  8.40E-08,  avg # of iterations =  2.0

     total cpu time spent up to now is      184.7 secs

     total energy              =    -156.47471714 Ry
     estimated scf accuracy    <       0.00000804 Ry

     iteration #  3     ecut=   100.00 Ry     beta= 0.70
     Davidson diagonalization with overlap
     ethr =  1.67E-08,  avg # of iterations =  2.0

     total cpu time spent up to now is      191.2 secs

     total energy              =    -156.47471822 Ry
     estimated scf accuracy    <       0.00000011 Ry

     iteration #  4     ecut=   100.00 Ry     beta= 0.70
     Davidson diagonalization with overlap
     ethr =  2.25E-10,  avg # of iterations =  3.0

     total cpu time spent up to now is      199.4 secs

     total energy              =    -156.47471827 Ry
     estimated scf accuracy    <       0.00000007 Ry

     iteration #  5     ecut=   100.00 Ry     beta= 0.70
     Davidson diagonalization with overlap
     ethr =  1.50E-10,  avg # of iterations =  2.0

     total cpu time spent up to now is      205.9 secs

     total energy              =    -156.47471828 Ry
     estimated scf accuracy    <          1.9E-09 Ry

     iteration #  6     ecut=   100.00 Ry     beta= 0.70
     Davidson diagonalization with overlap
     ethr =  3.91E-12,  avg # of iterations =  5.1

     total cpu time spent up to now is      214.5 secs

     total energy              =    -156.47471828 Ry
     estimated scf accuracy    <          7.7E-10 Ry

     iteration #  7     ecut=   100.00 Ry     beta= 0.70
     Davidson diagonalization with overlap
     ethr =  1.61E-12,  avg # of iterations =  2.8

     total cpu time spent up to now is      221.3 secs

     total energy              =    -156.47471828 Ry
     estimated scf accuracy    <          1.6E-11 Ry

     iteration #  8     ecut=   100.00 Ry     beta= 0.70
     Davidson diagonalization with overlap
     ethr =  1.00E-13,  avg # of iterations =  4.8

     total cpu time spent up to now is      229.7 secs

     End of self-consistent calculation

          k = 0.0000 0.0000 0.0000 ( 23847 PWs)   bands (ev):

   -23.6700 -23.6598  -9.2646  -9.1671  -8.9501  -8.9068  -8.8788  -8.8080
    -5.9440  -4.9584  -4.2170  -4.0735  -1.6479  -0.7139  -0.6221  -0.2803
     0.1094   0.1312   0.1877   0.3015   0.4724   0.9029   0.9161   0.9602

          k = 0.0000 0.0000 0.3609 ( 23838 PWs)   bands (ev):

   -23.6612 -23.6540  -9.1595  -9.1595  -9.1337  -9.0932  -8.9299  -8.9061
    -5.4052  -4.6731  -4.4091  -4.3206  -1.2461  -0.9820  -0.5260  -0.4690
    -0.3141  -0.1879   0.1934   0.4931   0.6861   0.7346   0.8141   0.9660

          k = 0.0000 0.0000-0.7219 ( 23908 PWs)   bands (ev):

   -23.6503 -23.6503  -9.3990  -9.3988  -8.9997  -8.9996  -8.9394  -8.9394
    -4.6554  -4.6549  -4.5882  -4.5876  -1.0085  -1.0080  -0.9966  -0.9950
     0.0946   0.0954   0.1941   0.1959   0.7822   0.7823   0.7956   0.7959

          k = 0.0000 0.2438 0.0000 ( 23835 PWs)   bands (ev):

   -23.6685 -23.6612  -9.2327  -9.1329  -9.0119  -8.9469  -8.8682  -8.8181
    -5.7296  -4.8598  -4.5262  -4.2143  -1.2637  -0.8159  -0.7904   0.0090
     0.0291   0.0512   0.3512   0.4801   0.5620   0.5692   0.8110   0.8867

          k = 0.0000 0.2438 0.3609 ( 23847 PWs)   bands (ev):

   -23.6602 -23.6550  -9.2110  -9.1683  -9.0767  -9.0614  -8.9409  -8.9311
    -5.2955  -4.7537  -4.4515  -4.3611  -1.0500  -1.0074  -0.8156  -0.2193
    -0.1730   0.0254   0.0387   0.5480   0.6194   0.6755   0.7790   0.8381

          k = 0.0000 0.2438-0.7219 ( 23846 PWs)   bands (ev):

   -23.6503 -23.6503  -9.4141  -9.4139  -8.9785  -8.9785  -8.9384  -8.9384
    -4.9718  -4.9718  -4.2585  -4.2584  -1.1396  -1.1389  -0.8061  -0.8053
     0.1769   0.1771   0.2316   0.2332   0.5983   0.5983   0.7902   0.7905

          k = 0.0000-0.4876 0.0000 ( 23834 PWs)   bands (ev):

   -23.6648 -23.6648  -9.1411  -9.1411  -9.0383  -9.0383  -8.8429  -8.8429
    -5.1978  -5.1978  -4.5238  -4.5238  -0.9436  -0.9436  -0.3039  -0.3039
    -0.0574  -0.0574   0.4746   0.4746   0.6092   0.6092   0.7350   0.7350

          k = 0.0000-0.4876 0.3609 ( 23818 PWs)   bands (ev):

   -23.6576 -23.6576  -9.2107  -9.2107  -9.0118  -9.0118  -8.9758  -8.9758
    -5.0231  -5.0231  -4.4333  -4.4333  -0.9926  -0.9926  -0.5716  -0.5716
     0.0829   0.0829   0.3734   0.3734   0.5322   0.5322   0.7528   0.7528

          k = 0.0000-0.4876-0.7219 ( 23820 PWs)   bands (ev):

   -23.6503 -23.6503  -9.4278  -9.4278  -8.9605  -8.9605  -8.9353  -8.9353
    -5.1135  -5.1135  -4.1036  -4.1036  -1.2350  -1.2350  -0.5432  -0.5432
     0.0943   0.0943   0.3056   0.3056   0.3966   0.3966   0.8283   0.8283

          k = 0.2500 0.0000 0.0000 ( 23882 PWs)   bands (ev):

   -23.6685 -23.6612  -9.2215  -9.1471  -8.9993  -8.9671  -8.8682  -8.8181
    -5.7385  -4.9833  -4.2640  -4.2420  -1.4483  -0.5597  -0.5357  -0.4119
     0.1547   0.1960   0.2589   0.3286   0.4286   0.4584   0.8647   0.9020

          k = 0.2500 0.0000 0.3609 ( 23851 PWs)   bands (ev):

   -23.6601 -23.6550  -9.2012  -9.1815  -9.1086  -9.0346  -8.9589  -8.9176
    -5.2471  -4.6512  -4.4599  -4.4462  -1.2177  -0.9646  -0.8211  -0.2672
    -0.2571   0.0340   0.2663   0.4056   0.5531   0.6835   0.8851   0.9147

          k = 0.2500 0.0000-0.7219 ( 23866 PWs)   bands (ev):

   -23.6503 -23.6503  -9.4195  -9.4194  -8.9839  -8.9838  -8.9357  -8.9357
    -4.7596  -4.7592  -4.4498  -4.4495  -1.4988  -1.4983  -0.5274  -0.5270
     0.0923   0.0927   0.4455   0.4469   0.5739   0.5740   0.8270   0.8274

          k = 0.2500 0.2438 0.0000 ( 23836 PWs)   bands (ev):

   -23.6674 -23.6623  -9.2532  -9.1199  -9.0593  -8.9142  -8.8606  -8.8251
    -5.5895  -4.9386  -4.5285  -4.2715  -1.1439  -0.7921  -0.5762  -0.1000
    -0.0306   0.0216   0.3406   0.4899   0.5065   0.5899   0.6609   0.8148

          k = 0.2500 0.2438 0.3609 ( 23877 PWs)   bands (ev):

   -23.6594 -23.6558  -9.2043  -9.1594  -9.1514  -9.0113  -8.9723  -8.9097
    -5.1553  -4.6973  -4.5433  -4.4415  -1.1804  -0.9348  -0.8290  -0.2535
    -0.0935   0.0919   0.1972   0.4271   0.5294   0.6458   0.8032   0.8919

          k = 0.2500 0.2438-0.7219 ( 23876 PWs)   bands (ev):

   -23.6503 -23.6503  -9.4271  -9.4008  -9.0088  -8.9626  -8.9444  -8.9361
    -4.9854  -4.7843  -4.4159  -4.2087  -1.4745  -1.3866  -0.6032  -0.4824
     0.0391   0.0437   0.4127   0.4860   0.5829   0.6342   0.7728   0.8037

          k = 0.2500-0.4876 0.0000 ( 23822 PWs)   bands (ev):

   -23.6648 -23.6648  -9.2257  -9.2257  -8.9536  -8.9536  -8.8425  -8.8425
    -5.2082  -5.2082  -4.5008  -4.5008  -0.8477  -0.8477  -0.3136  -0.3136
    -0.0992  -0.0992   0.3997   0.3997   0.6510   0.6510   0.6698   0.6698

          k = 0.2500-0.4876 0.3609 ( 23840 PWs)   bands (ev):

   -23.6575 -23.6575  -9.1979  -9.1979  -9.0835  -9.0835  -8.9256  -8.9256
    -4.9277  -4.9277  -4.5068  -4.5068  -1.0878  -1.0878  -0.4859  -0.4859
     0.0522   0.0522   0.3912   0.3912   0.5438   0.5438   0.7740   0.7740

          k = 0.2500-0.4876-0.7219 ( 23844 PWs)   bands (ev):

   -23.6503 -23.6503  -9.4096  -9.4096  -8.9884  -8.9884  -8.9429  -8.9429
    -4.9938  -4.9938  -4.1912  -4.1912  -1.3558  -1.3558  -0.6055  -0.6055
     0.1611   0.1611   0.2918   0.2918   0.6311   0.6311   0.7904   0.7904

          k =-0.5001 0.0000 0.0000 ( 23860 PWs)   bands (ev):

   -23.6648 -23.6648  -9.1146  -9.1146  -9.0750  -9.0750  -8.8430  -8.8430
    -5.2822  -5.2822  -4.3448  -4.3448  -1.0079  -1.0079  -0.1817  -0.1817
     0.1965   0.1965   0.2156   0.2156   0.3062   0.3062   0.7465   0.7465

          k =-0.5001 0.0000 0.3609 ( 23836 PWs)   bands (ev):

   -23.6575 -23.6575  -9.2155  -9.2155  -9.0370  -9.0370  -8.9589  -8.9589
    -4.8771  -4.8771  -4.5237  -4.5237  -1.1427  -1.1427  -0.5514  -0.5514
     0.0568   0.0568   0.2555   0.2555   0.6458   0.6458   0.8719   0.8719

          k =-0.5001 0.0000-0.7219 ( 23856 PWs)   bands (ev):

   -23.6503 -23.6503  -9.4384  -9.4384  -8.9709  -8.9709  -8.9307  -8.9307
    -4.8104  -4.8104  -4.3615  -4.3615  -1.7199  -1.7199  -0.2103  -0.2103
     0.0904   0.0904   0.2604   0.2604   0.7704   0.7704   0.7804   0.7804

          k =-0.5001 0.2438 0.0000 ( 23866 PWs)   bands (ev):

   -23.6648 -23.6648  -9.2240  -9.2240  -8.9605  -8.9605  -8.8425  -8.8425
    -5.2532  -5.2532  -4.4086  -4.4086  -0.8945  -0.8945  -0.1880  -0.1880
    -0.0298  -0.0298   0.1721   0.1721   0.5569   0.5569   0.7260   0.7260

          k =-0.5001 0.2438 0.3609 ( 23858 PWs)   bands (ev):

   -23.6575 -23.6575  -9.2010  -9.2010  -9.0881  -9.0881  -8.9244  -8.9244
    -4.8334  -4.8334  -4.5729  -4.5729  -1.1483  -1.1483  -0.5195  -0.5195
     0.0913   0.0913   0.3025   0.3025   0.6389   0.6389   0.7997   0.7997

          k =-0.5001 0.2438-0.7219 ( 23888 PWs)   bands (ev):

   -23.6502 -23.6502  -9.4154  -9.4154  -8.9914  -8.9914  -8.9421  -8.9421
    -4.8238  -4.8238  -4.3384  -4.3384  -1.6107  -1.6107  -0.4310  -0.4310
     0.1346   0.1346   0.3390   0.3390   0.7000   0.7000   0.8464   0.8464

          k =-0.5001-0.4876 0.0000 ( 23836 PWs)   bands (ev):

   -23.6648 -23.6648  -9.2750  -9.2750  -8.9041  -8.9041  -8.8421  -8.8421
    -5.2202  -5.2202  -4.4750  -4.4750  -0.7331  -0.7331  -0.3446  -0.3446
    -0.1368  -0.1368   0.3641   0.3641   0.5660   0.5660   0.6886   0.6886

          k =-0.5001-0.4876 0.3609 ( 23876 PWs)   bands (ev):

   -23.6575 -23.6575  -9.1725  -9.1725  -9.1390  -9.1390  -8.9043  -8.9043
    -4.7626  -4.7626  -4.6490  -4.6490  -1.1368  -1.1368  -0.5571  -0.5571
     0.2479   0.2479   0.3917   0.3917   0.5399   0.5399   0.7061   0.7061

          k =-0.5001-0.4876-0.7219 ( 23880 PWs)   bands (ev):

   -23.6502 -23.6502  -9.3890  -9.3890  -9.0187  -9.0187  -8.9499  -8.9499
    -4.8368  -4.8368  -4.3153  -4.3153  -1.4443  -1.4443  -0.7381  -0.7381
     0.3696   0.3696   0.4180   0.4180   0.5639   0.5639   0.8097   0.8097

     highest occupied level (ev):     0.9660

!    total energy              =    -156.47471828 Ry
     estimated scf accuracy    <          2.1E-12 Ry

     The total energy is the sum of the following terms:
     one-electron contribution =     -20.72827984 Ry
     hartree contribution      =      25.05257253 Ry
     xc contribution           =     -49.17391768 Ry
     ewald contribution        =    -111.62509329 Ry

     convergence has been achieved in   8 iterations

     Forces acting on atoms (cartesian axes, Ry/au):

     atom    1 type  2   force =     0.00000000    0.00000000    0.00000752
     atom    2 type  2   force =     0.00000000    0.00000000   -0.00000752
     atom    3 type  1   force =    -0.00010245   -0.00023867   -0.00000941
     atom    4 type  1   force =     0.00010245    0.00023867   -0.00000941
     atom    5 type  1   force =    -0.00010245    0.00023867    0.00000941
     atom    6 type  1   force =     0.00010245   -0.00023867    0.00000941
     atom    7 type  3   force =    -0.00052299    0.00002568   -0.00001944
     atom    8 type  3   force =     0.00052299   -0.00002568   -0.00001944
     atom    9 type  3   force =    -0.00052299   -0.00002568    0.00001944
     atom   10 type  3   force =     0.00052299    0.00002568    0.00001944
     atom   11 type  3   force =     0.00030511    0.00017794    0.00000412
     atom   12 type  3   force =    -0.00030511   -0.00017794    0.00000412
     atom   13 type  3   force =     0.00030511   -0.00017794   -0.00000412
     atom   14 type  3   force =    -0.00030511    0.00017794   -0.00000412
     atom   15 type  3   force =    -0.00001966   -0.00033523   -0.00034220
     atom   16 type  3   force =     0.00001966    0.00033523   -0.00034220
     atom   17 type  3   force =    -0.00001966    0.00033523    0.00034220
     atom   18 type  3   force =     0.00001966   -0.00033523    0.00034220
     atom   19 type  3   force =     0.00006124    0.00032156    0.00033662
     atom   20 type  3   force =    -0.00006124   -0.00032156    0.00033662
     atom   21 type  3   force =     0.00006124   -0.00032156   -0.00033662
     atom   22 type  3   force =    -0.00006124    0.00032156   -0.00033662

     Total force =     0.001915     Total SCF correction =     0.000001


     Computing stress (Cartesian axis) and pressure

          total   stress  (Ry/bohr**3)                   (kbar)     P=        3.29
   0.00002088   0.00000000   0.00000000            3.07        0.00        0.00
   0.00000000   0.00002091   0.00000000            0.00        3.08        0.00
   0.00000000   0.00000000   0.00002531            0.00        0.00        3.72

     Volume is kept fixed: isostatic pressure set to zero
     Energy error            =      5.8E-05 Ry
     Gradient error          =      5.2E-04 Ry/Bohr
     Cell gradient error     =      4.3E-01 kbar

     number of scf cycles    =   3
     number of bfgs steps    =   2

     enthalpy           old  =    -156.4746606672 Ry
     enthalpy           new  =    -156.4747182815 Ry

     CASE: enthalpy          _new < enthalpy          _old

     new trust radius        =       0.0013043494 bohr
ibrav =      8
 celldm(1) =     12.57387235
 celldm(2) =      1.02561099
 celldm(3) =      0.69288366
Input lattice vectors:
     0.99975144     0.00000000     0.00000000
     0.00000000     1.02535606     0.00000000
     0.00000000     0.00000000     0.69271143
New lattice vectors in INITIAL alat:
     0.99975144     0.00000000     0.00000000
     0.00000000     1.02535606     0.00000000
     0.00000000     0.00000000     0.69271143
New lattice vectors in NEW alat (for information only):
     1.00000000     0.00000000     0.00000000
     0.00000000     1.02561099     0.00000000
     0.00000000     0.00000000     0.69288366
Discrepancy in bohr =     0.000000    0.000000    0.000000
     new conv_thr            =            5.8E-12 Ry

     new unit-cell volume =   1412.70059 a.u.^3 (   209.34063 Ang^3 )
     density =      2.64957 g/cm^3

CELL_PARAMETERS (alat= 12.57699853)
   0.999751437   0.000000000   0.000000000
   0.000000000   1.025356064   0.000000000
   0.000000000   0.000000000   0.692711430

ATOMIC_POSITIONS (crystal)
Ba               0.5000000000        0.5000000000        0.5001048417
Ba               0.0000000000        0.0000000000        0.9998951583
B                0.6102253491        0.2390904036        0.0000598751
B                0.3897746509        0.7609095964        0.0000598751
B                0.1102253491        0.2609095964        0.4999401249
B                0.8897746509        0.7390904036        0.4999401249
H                0.4335267534        0.2922760496        0.0002217196
H                0.5664732466        0.7077239504        0.0002217196
H                0.9335267534        0.2077239504        0.4997782804
H                0.0664732466        0.7922760496        0.4997782804
H                0.7224314604        0.3839577737       -0.0000059153
H                0.2775685396        0.6160422263       -0.0000059153
H                0.2224314604        0.1160422263        0.5000059153
H                0.7775685396        0.8839577737        0.5000059153
H                0.6393072639        0.1417653067        0.7798024345
H                0.3606927361        0.8582346933        0.7798024345
H                0.1393072639        0.3582346933        0.7201975655
H                0.8606927361        0.6417653067        0.7201975655
H                0.3604911660        0.8582791389        0.2202166869
H                0.6395088340        0.1417208611        0.2202166869
H                0.8604911660        0.6417208611        0.2797833131
H                0.1395088340        0.3582791389        0.2797833131



     Writing config-only to output data dir ./pwscf.save/ :
     XML data file
     NEW-OLD atomic charge density approx. for the potential

     total cpu time spent up to now is      237.5 secs

     Self-consistent Calculation

     iteration #  1     ecut=   100.00 Ry     beta= 0.70
     Davidson diagonalization with overlap
     ethr =  1.00E-06,  avg # of iterations =  2.0

     Threshold (ethr) on eigenvalues was too large:
     Diagonalizing with lowered threshold

     Davidson diagonalization with overlap
     ethr =  4.82E-09,  avg # of iterations =  3.1

     total cpu time spent up to now is      250.3 secs

     total energy              =    -156.47472190 Ry
     estimated scf accuracy    <       0.00000597 Ry

     iteration #  2     ecut=   100.00 Ry     beta= 0.70
     Davidson diagonalization with overlap
     ethr =  1.24E-08,  avg # of iterations =  2.0

     total cpu time spent up to now is      256.8 secs

     total energy              =    -156.47472368 Ry
     estimated scf accuracy    <       0.00000134 Ry

     iteration #  3     ecut=   100.00 Ry     beta= 0.70
     Davidson diagonalization with overlap
     ethr =  2.79E-09,  avg # of iterations =  2.0

     total cpu time spent up to now is      263.4 secs

     total energy              =    -156.47472385 Ry
     estimated scf accuracy    <       0.00000002 Ry

     iteration #  4     ecut=   100.00 Ry     beta= 0.70
     Davidson diagonalization with overlap
     ethr =  4.49E-11,  avg # of iterations =  3.0

     total cpu time spent up to now is      271.3 secs

     total energy              =    -156.47472386 Ry
     estimated scf accuracy    <       0.00000001 Ry

     iteration #  5     ecut=   100.00 Ry     beta= 0.70
     Davidson diagonalization with overlap
     ethr =  2.22E-11,  avg # of iterations =  2.0

     total cpu time spent up to now is      277.8 secs

     total energy              =    -156.47472386 Ry
     estimated scf accuracy    <          3.0E-10 Ry

     iteration #  6     ecut=   100.00 Ry     beta= 0.70
     Davidson diagonalization with overlap
     ethr =  6.26E-13,  avg # of iterations =  5.5

     total cpu time spent up to now is      286.9 secs

     total energy              =    -156.47472386 Ry
     estimated scf accuracy    <          2.0E-10 Ry

     iteration #  7     ecut=   100.00 Ry     beta= 0.70
     Davidson diagonalization with overlap
     ethr =  4.16E-13,  avg # of iterations =  2.0

     total cpu time spent up to now is      293.4 secs

     total energy              =    -156.47472386 Ry
     estimated scf accuracy    <          6.1E-12 Ry

     iteration #  8     ecut=   100.00 Ry     beta= 0.70
     Davidson diagonalization with overlap
     ethr =  1.00E-13,  avg # of iterations =  3.0

     total cpu time spent up to now is      299.6 secs

     End of self-consistent calculation

          k = 0.0000 0.0000 0.0000 ( 23847 PWs)   bands (ev):

   -23.6691 -23.6588  -9.2635  -9.1661  -8.9491  -8.9059  -8.8780  -8.8071
    -5.9417  -4.9548  -4.2136  -4.0698  -1.6475  -0.7123  -0.6212  -0.2776
     0.1108   0.1327   0.1882   0.3029   0.4732   0.9057   0.9190   0.9637

          k = 0.0000 0.0000 0.3609 ( 23838 PWs)   bands (ev):

   -23.6603 -23.6531  -9.1585  -9.1582  -9.1325  -9.0922  -8.9289  -8.9052
    -5.4031  -4.6699  -4.4054  -4.3167  -1.2462  -0.9816  -0.5254  -0.4674
    -0.3131  -0.1869   0.1952   0.4953   0.6887   0.7375   0.8164   0.9691

          k = 0.0000 0.0000-0.7218 ( 23908 PWs)   bands (ev):

   -23.6494 -23.6494  -9.3975  -9.3973  -8.9988  -8.9988  -8.9385  -8.9385
    -4.6528  -4.6524  -4.5841  -4.5836  -1.0087  -1.0082  -0.9964  -0.9948
     0.0968   0.0975   0.1960   0.1977   0.7853   0.7853   0.7981   0.7984

          k = 0.0000 0.2438 0.0000 ( 23835 PWs)   bands (ev):

   -23.6675 -23.6603  -9.2316  -9.1318  -9.0109  -8.9460  -8.8674  -8.8172
    -5.7273  -4.8561  -4.5233  -4.2106  -1.2628  -0.8150  -0.7891   0.0100
     0.0298   0.0539   0.3534   0.4813   0.5650   0.5703   0.8138   0.8896

          k = 0.0000 0.2438 0.3609 ( 23847 PWs)   bands (ev):

   -23.6592 -23.6541  -9.2098  -9.1671  -9.0756  -9.0604  -8.9399  -8.9302
    -5.2932  -4.7505  -4.4480  -4.3573  -1.0498  -1.0070  -0.8148  -0.2185
    -0.1716   0.0277   0.0401   0.5503   0.6219   0.6784   0.7814   0.8408

          k = 0.0000 0.2438-0.7218 ( 23846 PWs)   bands (ev):

   -23.6494 -23.6494  -9.4126  -9.4125  -8.9777  -8.9777  -8.9375  -8.9375
    -4.9685  -4.9685  -4.2552  -4.2552  -1.1394  -1.1387  -0.8062  -0.8054
     0.1791   0.1793   0.2336   0.2352   0.6006   0.6006   0.7932   0.7934

          k = 0.0000-0.4876 0.0000 ( 23834 PWs)   bands (ev):

   -23.6639 -23.6639  -9.1400  -9.1400  -9.0374  -9.0374  -8.8421  -8.8421
    -5.1951  -5.1951  -4.5204  -4.5204  -0.9428  -0.9428  -0.3018  -0.3018
    -0.0566  -0.0566   0.4776   0.4776   0.6104   0.6104   0.7376   0.7376

          k = 0.0000-0.4876 0.3609 ( 23818 PWs)   bands (ev):

   -23.6566 -23.6566  -9.2096  -9.2096  -9.0107  -9.0107  -8.9749  -8.9749
    -5.0204  -5.0204  -4.4298  -4.4298  -0.9922  -0.9922  -0.5707  -0.5707
     0.0846   0.0846   0.3750   0.3750   0.5352   0.5352   0.7552   0.7552

          k = 0.0000-0.4876-0.7218 ( 23820 PWs)   bands (ev):

   -23.6494 -23.6494  -9.4263  -9.4263  -8.9597  -8.9597  -8.9344  -8.9344
    -5.1102  -5.1102  -4.1004  -4.1004  -1.2348  -1.2348  -0.5433  -0.5433
     0.0967   0.0967   0.3075   0.3075   0.3990   0.3990   0.8313   0.8313

          k = 0.2501 0.0000 0.0000 ( 23882 PWs)   bands (ev):

   -23.6675 -23.6603  -9.2203  -9.1461  -8.9982  -8.9662  -8.8674  -8.8173
    -5.7362  -4.9798  -4.2605  -4.2385  -1.4478  -0.5581  -0.5347  -0.4099
     0.1555   0.1970   0.2599   0.3311   0.4297   0.4607   0.8677   0.9056

          k = 0.2501 0.0000 0.3609 ( 23851 PWs)   bands (ev):

   -23.6592 -23.6541  -9.2001  -9.1804  -9.1076  -9.0336  -8.9580  -8.9167
    -5.2448  -4.6480  -4.4561  -4.4425  -1.2180  -0.9638  -0.8210  -0.2659
    -0.2553   0.0354   0.2685   0.4079   0.5552   0.6858   0.8882   0.9173

          k = 0.2501 0.0000-0.7218 ( 23866 PWs)   bands (ev):

   -23.6494 -23.6494  -9.4180  -9.4179  -8.9830  -8.9830  -8.9348  -8.9348
    -4.7560  -4.7556  -4.4468  -4.4464  -1.4991  -1.4986  -0.5270  -0.5267
     0.0944   0.0948   0.4476   0.4490   0.5764   0.5765   0.8298   0.8302

          k = 0.2501 0.2438 0.0000 ( 23836 PWs)   bands (ev):

   -23.6664 -23.6613  -9.2521  -9.1188  -9.0583  -8.9133  -8.8597  -8.8243
    -5.5870  -4.9351  -4.5254  -4.2680  -1.1429  -0.7910  -0.5747  -0.0982
    -0.0299   0.0224   0.3432   0.4911   0.5093   0.5912   0.6637   0.8177

          k = 0.2501 0.2438 0.3609 ( 23877 PWs)   bands (ev):

   -23.6584 -23.6548  -9.2031  -9.1582  -9.1504  -9.0102  -8.9714  -8.9088
    -5.1529  -4.6940  -4.5400  -4.4378  -1.1805  -0.9347  -0.8280  -0.2521
    -0.0918   0.0935   0.1993   0.4291   0.5320   0.6483   0.8058   0.8945

          k = 0.2501 0.2438-0.7218 ( 23876 PWs)   bands (ev):

   -23.6494 -23.6493  -9.4256  -9.3993  -9.0080  -8.9618  -8.9435  -8.9352
    -4.9820  -4.7808  -4.4127  -4.2056  -1.4748  -1.3870  -0.6027  -0.4821
     0.0411   0.0460   0.4146   0.4880   0.5859   0.6367   0.7751   0.8070

          k = 0.2501-0.4876 0.0000 ( 23822 PWs)   bands (ev):

   -23.6639 -23.6639  -9.2246  -9.2246  -8.9527  -8.9527  -8.8416  -8.8416
    -5.2052  -5.2052  -4.4976  -4.4976  -0.8466  -0.8466  -0.3116  -0.3116
    -0.0985  -0.0985   0.4022   0.4022   0.6523   0.6523   0.6726   0.6726

          k = 0.2501-0.4876 0.3609 ( 23840 PWs)   bands (ev):

   -23.6566 -23.6566  -9.1968  -9.1968  -9.0825  -9.0825  -8.9247  -8.9247
    -4.9248  -4.9248  -4.5034  -4.5034  -1.0877  -1.0877  -0.4846  -0.4846
     0.0538   0.0538   0.3933   0.3933   0.5464   0.5464   0.7764   0.7764

          k = 0.2501-0.4876-0.7218 ( 23844 PWs)   bands (ev):

   -23.6493 -23.6493  -9.4081  -9.4081  -8.9876  -8.9876  -8.9420  -8.9420
    -4.9903  -4.9903  -4.1880  -4.1880  -1.3560  -1.3560  -0.6051  -0.6051
     0.1634   0.1634   0.2937   0.2937   0.6337   0.6337   0.7931   0.7931

          k =-0.5001 0.0000 0.0000 ( 23860 PWs)   bands (ev):

   -23.6639 -23.6639  -9.1135  -9.1135  -9.0741  -9.0741  -8.8421  -8.8421
    -5.2793  -5.2793  -4.3413  -4.3413  -1.0071  -1.0071  -0.1803  -0.1803
     0.1970   0.1970   0.2181   0.2181   0.3076   0.3076   0.7498   0.7498

          k =-0.5001 0.0000 0.3609 ( 23836 PWs)   bands (ev):

   -23.6566 -23.6566  -9.2144  -9.2144  -9.0359  -9.0359  -8.9580  -8.9580
    -4.8743  -4.8743  -4.5200  -4.5200  -1.1429  -1.1429  -0.5502  -0.5502
     0.0587   0.0587   0.2575   0.2575   0.6479   0.6479   0.8749   0.8749

          k =-0.5001 0.0000-0.7218 ( 23856 PWs)   bands (ev):

   -23.6493 -23.6493  -9.4370  -9.4370  -8.9700  -8.9700  -8.9298  -8.9298
    -4.8066  -4.8066  -4.3587  -4.3587  -1.7204  -1.7204  -0.2098  -0.2098
     0.0925   0.0925   0.2626   0.2626   0.7726   0.7726   0.7836   0.7836

          k =-0.5001 0.2438 0.0000 ( 23866 PWs)   bands (ev):

   -23.6638 -23.6638  -9.2229  -9.2229  -8.9595  -8.9595  -8.8416  -8.8416
    -5.2501  -5.2501  -4.4054  -4.4054  -0.8933  -0.8933  -0.1864  -0.1864
    -0.0291  -0.0291   0.1743   0.1743   0.5582   0.5582   0.7291   0.7291

          k =-0.5001 0.2438 0.3609 ( 23858 PWs)   bands (ev):

   -23.6566 -23.6566  -9.1999  -9.1999  -9.0871  -9.0871  -8.9235  -8.9235
    -4.8305  -4.8305  -4.5694  -4.5694  -1.1484  -1.1484  -0.5182  -0.5182
     0.0933   0.0933   0.3045   0.3045   0.6411   0.6411   0.8024   0.8024

          k =-0.5001 0.2438-0.7218 ( 23888 PWs)   bands (ev):

   -23.6493 -23.6493  -9.4139  -9.4139  -8.9906  -8.9906  -8.9412  -8.9412
    -4.8201  -4.8201  -4.3354  -4.3354  -1.6111  -1.6111  -0.4304  -0.4304
     0.1367   0.1367   0.3412   0.3412   0.7028   0.7028   0.8489   0.8489

          k =-0.5001-0.4876 0.0000 ( 23836 PWs)   bands (ev):

   -23.6638 -23.6638  -9.2740  -9.2740  -8.9032  -8.9032  -8.8412  -8.8412
    -5.2170  -5.2170  -4.4721  -4.4721  -0.7312  -0.7312  -0.3433  -0.3433
    -0.1361  -0.1361   0.3667   0.3667   0.5685   0.5685   0.6900   0.6900

          k =-0.5001-0.4876 0.3609 ( 23876 PWs)   bands (ev):

   -23.6566 -23.6566  -9.1715  -9.1715  -9.1378  -9.1378  -8.9033  -8.9033
    -4.7595  -4.7595  -4.6458  -4.6458  -1.1367  -1.1367  -0.5558  -0.5558
     0.2498   0.2498   0.3943   0.3943   0.5424   0.5424   0.7080   0.7080

          k =-0.5001-0.4876-0.7218 ( 23880 PWs)   bands (ev):

   -23.6493 -23.6493  -9.3875  -9.3875  -9.0179  -9.0179  -8.9490  -8.9490
    -4.8332  -4.8332  -4.3122  -4.3122  -1.4447  -1.4447  -0.7376  -0.7376
     0.3716   0.3716   0.4207   0.4207   0.5666   0.5666   0.8120   0.8120

     highest occupied level (ev):     0.9691

!    total energy              =    -156.47472386 Ry
     estimated scf accuracy    <          4.7E-13 Ry

     The total energy is the sum of the following terms:
     one-electron contribution =     -20.68803785 Ry
     hartree contribution      =      25.03257402 Ry
     xc contribution           =     -49.16937914 Ry
     ewald contribution        =    -111.64988089 Ry

     convergence has been achieved in   8 iterations

     Forces acting on atoms (cartesian axes, Ry/au):

     atom    1 type  2   force =     0.00000000    0.00000000    0.00000438
     atom    2 type  2   force =     0.00000000    0.00000000   -0.00000438
     atom    3 type  1   force =    -0.00009870   -0.00016907   -0.00000794
     atom    4 type  1   force =     0.00009870    0.00016907   -0.00000794
     atom    5 type  1   force =    -0.00009870    0.00016907    0.00000794
     atom    6 type  1   force =     0.00009870   -0.00016907    0.00000794
     atom    7 type  3   force =    -0.00010154   -0.00009671   -0.00002050
     atom    8 type  3   force =     0.00010154    0.00009671   -0.00002050
     atom    9 type  3   force =    -0.00010154    0.00009671    0.00002050
     atom   10 type  3   force =     0.00010154   -0.00009671    0.00002050
     atom   11 type  3   force =     0.00000336   -0.00021576    0.00000352
     atom   12 type  3   force =    -0.00000336    0.00021576    0.00000352
     atom   13 type  3   force =     0.00000336    0.00021576   -0.00000352
     atom   14 type  3   force =    -0.00000336   -0.00021576   -0.00000352
     atom   15 type  3   force =    -0.00009175   -0.00010627    0.00006987
     atom   16 type  3   force =     0.00009175    0.00010627    0.00006987
     atom   17 type  3   force =    -0.00009175    0.00010627   -0.00006987
     atom   18 type  3   force =     0.00009175   -0.00010627   -0.00006987
     atom   19 type  3   force =     0.00013103    0.00009520   -0.00007373
     atom   20 type  3   force =    -0.00013103   -0.00009520   -0.00007373
     atom   21 type  3   force =     0.00013103   -0.00009520    0.00007373
     atom   22 type  3   force =    -0.00013103    0.00009520    0.00007373

     Total force =     0.000803     Total SCF correction =     0.000000


     Computing stress (Cartesian axis) and pressure

          total   stress  (Ry/bohr**3)                   (kbar)     P=        2.70
   0.00001730   0.00000000   0.00000000            2.54        0.00        0.00
   0.00000000   0.00001726   0.00000000            0.00        2.54        0.00
   0.00000000   0.00000000   0.00002058            0.00        0.00        3.03

     Volume is kept fixed: isostatic pressure set to zero
     Energy error            =      5.6E-06 Ry
     Gradient error          =      2.2E-04 Ry/Bohr
     Cell gradient error     =      3.2E-01 kbar

     number of scf cycles    =   4
     number of bfgs steps    =   3

     enthalpy           old  =    -156.4747182815 Ry
     enthalpy           new  =    -156.4747238605 Ry

     CASE: enthalpy          _new < enthalpy          _old

     new trust radius        =       0.0005723635 bohr
ibrav =      8
 celldm(1) =     12.57339632
 celldm(2) =      1.02561054
 celldm(3) =      0.69296267
Input lattice vectors:
     0.99971359     0.00000000     0.00000000
     0.00000000     1.02531679     0.00000000
     0.00000000     0.00000000     0.69276419
New lattice vectors in INITIAL alat:
     0.99971359     0.00000000     0.00000000
     0.00000000     1.02531679     0.00000000
     0.00000000     0.00000000     0.69276419
New lattice vectors in NEW alat (for information only):
     1.00000000     0.00000000     0.00000000
     0.00000000     1.02561054     0.00000000
     0.00000000     0.00000000     0.69296267
Discrepancy in bohr =     0.000000    0.000000    0.000000
     new conv_thr            =            1.0E-12 Ry

     new unit-cell volume =   1412.70059 a.u.^3 (   209.34063 Ang^3 )
     density =      2.64957 g/cm^3

CELL_PARAMETERS (alat= 12.57699853)
   0.999713588   0.000000000   0.000000000
   0.000000000   1.025316789   0.000000000
   0.000000000   0.000000000   0.692764192

ATOMIC_POSITIONS (crystal)
Ba               0.5000000000        0.5000000000        0.5001055839
Ba               0.0000000000        0.0000000000        0.9998944161
B                0.6102152308        0.2390720222        0.0000586516
B                0.3897847692        0.7609279778        0.0000586516
B                0.1102152308        0.2609279778        0.4999413484
B                0.8897847692        0.7390720222        0.4999413484
H                0.4335047205        0.2922696966        0.0002187122
H                0.5664952795        0.7077303034        0.0002187122
H                0.9335047205        0.2077303034        0.4997812878
H                0.0664952795        0.7922696966        0.4997812878
H                0.7224399524        0.3839466443       -0.0000053758
H                0.2775600476        0.6160533557       -0.0000053758
H                0.2224399524        0.1160533557        0.5000053758
H                0.7775600476        0.8839466443        0.5000053758
H                0.6392998099        0.1417484098        0.7797967440
H                0.3607001901        0.8582515902        0.7797967440
H                0.1392998099        0.3582515902        0.7202032560
H                0.8607001901        0.6417484098        0.7202032560
H                0.3605026978        0.8582948751        0.2202217505
H                0.6394973022        0.1417051249        0.2202217505
H                0.8605026978        0.6417051249        0.2797782495
H                0.1394973022        0.3582948751        0.2797782495



     Writing config-only to output data dir ./pwscf.save/ :
     XML data file
     NEW-OLD atomic charge density approx. for the potential

     total cpu time spent up to now is      307.4 secs

     Self-consistent Calculation

     iteration #  1     ecut=   100.00 Ry     beta= 0.70
     Davidson diagonalization with overlap
     ethr =  1.00E-06,  avg # of iterations =  1.0

     Threshold (ethr) on eigenvalues was too large:
     Diagonalizing with lowered threshold

     Davidson diagonalization with overlap
     ethr =  9.89E-11,  avg # of iterations =  4.1

     total cpu time spent up to now is      322.2 secs

     total energy              =    -156.47472484 Ry
     estimated scf accuracy    <       0.00000013 Ry

     iteration #  2     ecut=   100.00 Ry     beta= 0.70
     Davidson diagonalization with overlap
     ethr =  2.77E-10,  avg # of iterations =  2.0

     total cpu time spent up to now is      328.8 secs

     total energy              =    -156.47472487 Ry
     estimated scf accuracy    <       0.00000001 Ry

     iteration #  3     ecut=   100.00 Ry     beta= 0.70
     Davidson diagonalization with overlap
     ethr =  2.81E-11,  avg # of iterations =  2.0

     total cpu time spent up to now is      335.3 secs

     total energy              =    -156.47472488 Ry
     estimated scf accuracy    <          3.7E-10 Ry

     iteration #  4     ecut=   100.00 Ry     beta= 0.70
     Davidson diagonalization with overlap
     ethr =  7.81E-13,  avg # of iterations =  4.1

     total cpu time spent up to now is      343.0 secs

     total energy              =    -156.47472488 Ry
     estimated scf accuracy    <          5.8E-11 Ry

     iteration #  5     ecut=   100.00 Ry     beta= 0.70
     Davidson diagonalization with overlap
     ethr =  1.20E-13,  avg # of iterations =  3.9

     total cpu time spent up to now is      350.6 secs

     total energy              =    -156.47472488 Ry
     estimated scf accuracy    <          1.2E-12 Ry

     iteration #  6     ecut=   100.00 Ry     beta= 0.70
     Davidson diagonalization with overlap
     ethr =  1.00E-13,  avg # of iterations =  1.0

     total cpu time spent up to now is      355.7 secs

     End of self-consistent calculation

          k = 0.0000 0.0000 0.0000 ( 23847 PWs)   bands (ev):

   -23.6691 -23.6588  -9.2634  -9.1661  -8.9490  -8.9059  -8.8780  -8.8071
    -5.9415  -4.9544  -4.2132  -4.0693  -1.6472  -0.7120  -0.6211  -0.2770
     0.1107   0.1333   0.1878   0.3028   0.4729   0.9062   0.9193   0.9646

          k = 0.0000 0.0000 0.3609 ( 23838 PWs)   bands (ev):

   -23.6603 -23.6531  -9.1584  -9.1581  -9.1323  -9.0922  -8.9289  -8.9052
    -5.4030  -4.6697  -4.4049  -4.3161  -1.2461  -0.9814  -0.5251  -0.4671
    -0.3131  -0.1869   0.1955   0.4956   0.6890   0.7381   0.8167   0.9698

          k = 0.0000 0.0000-0.7217 ( 23908 PWs)   bands (ev):

   -23.6495 -23.6494  -9.3972  -9.3970  -8.9989  -8.9989  -8.9385  -8.9385
    -4.6528  -4.6524  -4.5835  -4.5829  -1.0088  -1.0082  -0.9961  -0.9946
     0.0970   0.0978   0.1962   0.1980   0.7861   0.7861   0.7985   0.7988

          k = 0.0000 0.2438 0.0000 ( 23835 PWs)   bands (ev):

   -23.6676 -23.6603  -9.2315  -9.1318  -9.0108  -8.9460  -8.8674  -8.8173
    -5.7270  -4.8556  -4.5230  -4.2102  -1.2624  -0.8147  -0.7888   0.0099
     0.0295   0.0545   0.3540   0.4812   0.5657   0.5701   0.8143   0.8900

          k = 0.0000 0.2438 0.3609 ( 23847 PWs)   bands (ev):

   -23.6593 -23.6541  -9.2097  -9.1670  -9.0755  -9.0604  -8.9398  -8.9302
    -5.2931  -4.7502  -4.4476  -4.3568  -1.0497  -1.0068  -0.8146  -0.2185
    -0.1715   0.0281   0.0402   0.5506   0.6223   0.6791   0.7816   0.8413

          k = 0.0000 0.2438-0.7217 ( 23846 PWs)   bands (ev):

   -23.6494 -23.6494  -9.4123  -9.4122  -8.9777  -8.9777  -8.9375  -8.9375
    -4.9682  -4.9682  -4.2549  -4.2549  -1.1391  -1.1385  -0.8063  -0.8055
     0.1794   0.1796   0.2339   0.2355   0.6010   0.6010   0.7939   0.7941

          k = 0.0000-0.4877 0.0000 ( 23834 PWs)   bands (ev):

   -23.6639 -23.6639  -9.1399  -9.1399  -9.0373  -9.0373  -8.8421  -8.8421
    -5.1947  -5.1947  -4.5200  -4.5200  -0.9425  -0.9425  -0.3013  -0.3013
    -0.0569  -0.0569   0.4783   0.4783   0.6103   0.6103   0.7380   0.7380

          k = 0.0000-0.4877 0.3609 ( 23818 PWs)   bands (ev):

   -23.6567 -23.6567  -9.2095  -9.2095  -9.0106  -9.0106  -8.9749  -8.9749
    -5.0201  -5.0201  -4.4294  -4.4294  -0.9921  -0.9921  -0.5705  -0.5705
     0.0848   0.0848   0.3751   0.3751   0.5360   0.5360   0.7555   0.7555

          k = 0.0000-0.4877-0.7217 ( 23820 PWs)   bands (ev):

   -23.6494 -23.6494  -9.4261  -9.4261  -8.9598  -8.9598  -8.9344  -8.9344
    -5.1099  -5.1099  -4.1002  -4.1002  -1.2346  -1.2346  -0.5434  -0.5434
[...]
     0.99748019     0.00000000     0.00000000
     0.00000000     1.02577704     0.00000000
     0.00000000     0.00000000     0.69400379
New lattice vectors in INITIAL alat:
     0.99748019     0.00000000     0.00000000
     0.00000000     1.02577704     0.00000000
     0.00000000     0.00000000     0.69400379
New lattice vectors in NEW alat (for information only):
     1.00000000     0.00000000     0.00000000
     0.00000000     1.02836833     0.00000000
     0.00000000     0.00000000     0.69575696
Discrepancy in bohr =     0.000000    0.000000    0.000000
     new conv_thr            =            1.0E-12 Ry

     new unit-cell volume =   1412.70059 a.u.^3 (   209.34063 Ang^3 )
     density =      2.64957 g/cm^3

CELL_PARAMETERS (alat= 12.57699853)
   0.997480192   0.000000000   0.000000000
   0.000000000   1.025777041   0.000000000
   0.000000000   0.000000000   0.694003787

ATOMIC_POSITIONS (crystal)
Ba               0.5000000000        0.5000000000        0.5000183470
Ba               0.0000000000        0.0000000000        0.9999816530
B                0.6087522878        0.2381836465        0.0000019225
B                0.3912477122        0.7618163535        0.0000019225
B                0.1087522878        0.2618163535        0.4999980775
B                0.8912477122        0.7381836465        0.4999980775
H                0.4319651627        0.2924123516        0.0000103309
H                0.5680348373        0.7075876484        0.0000103309
H                0.9319651627        0.2075876484        0.4999896691
H                0.0680348373        0.7924123516        0.4999896691
H                0.7221955169        0.3822761835       -0.0000143099
H                0.2778044831        0.6177238165       -0.0000143099
H                0.2221955169        0.1177238165        0.5000143099
H                0.7778044831        0.8822761835        0.5000143099
H                0.6374120761        0.1406042355        0.7803050370
H                0.3625879239        0.8593957645        0.7803050370
H                0.1374120761        0.3593957645        0.7196949630
H                0.8625879239        0.6406042355        0.7196949630
H                0.3625721899        0.8593982990        0.2196923625
H                0.6374278101        0.1406017010        0.2196923625
H                0.8625721899        0.6406017010        0.2803076375
H                0.1374278101        0.3593982990        0.2803076375



     Writing config-only to output data dir ./pwscf.save/ :
     XML data file
     NEW-OLD atomic charge density approx. for the potential

     total cpu time spent up to now is     2730.8 secs

     Self-consistent Calculation

     iteration #  1     ecut=   100.00 Ry     beta= 0.70
     Davidson diagonalization with overlap
     ethr =  1.00E-06,  avg # of iterations =  1.0

     Threshold (ethr) on eigenvalues was too large:
     Diagonalizing with lowered threshold

     Davidson diagonalization with overlap
     ethr =  1.65E-13,  avg # of iterations =  4.3

     total cpu time spent up to now is     2745.3 secs

     total energy              =    -156.47476767 Ry
     estimated scf accuracy    <          4.2E-11 Ry

     iteration #  2     ecut=   100.00 Ry     beta= 0.70
     Davidson diagonalization with overlap
     ethr =  1.00E-13,  avg # of iterations =  2.0

     total cpu time spent up to now is     2751.6 secs

     total energy              =    -156.47476767 Ry
     estimated scf accuracy    <          1.6E-12 Ry

     iteration #  3     ecut=   100.00 Ry     beta= 0.70
     Davidson diagonalization with overlap
     ethr =  1.00E-13,  avg # of iterations =  1.0

     total cpu time spent up to now is     2756.6 secs

     End of self-consistent calculation

          k = 0.0000 0.0000 0.0000 ( 23847 PWs)   bands (ev):

   -23.6781 -23.6678  -9.2656  -9.1668  -8.9534  -8.9113  -8.8849  -8.8144
    -5.9375  -4.9511  -4.2125  -4.0594  -1.6394  -0.7107  -0.6204  -0.2778
     0.1237   0.1607   0.1814   0.3265   0.4695   0.9122   0.9266   0.9705

          k = 0.0000 0.0000 0.3602 ( 23838 PWs)   bands (ev):

   -23.6695 -23.6623  -9.1621  -9.1592  -9.1332  -9.0949  -8.9339  -8.9111
    -5.4061  -4.6737  -4.3998  -4.3050  -1.2440  -0.9677  -0.4960  -0.4654
    -0.3170  -0.1871   0.1959   0.4995   0.6929   0.7495   0.8306   0.9820

          k = 0.0000 0.0000-0.7205 ( 23908 PWs)   bands (ev):

   -23.6588 -23.6588  -9.3939  -9.3939  -9.0045  -9.0045  -8.9438  -8.9438
    -4.6623  -4.6623  -4.5720  -4.5719  -1.0061  -1.0060  -0.9726  -0.9726
     0.0956   0.0958   0.1969   0.1970   0.8022   0.8023   0.8054   0.8055

          k = 0.0000 0.2437 0.0000 ( 23835 PWs)   bands (ev):

   -23.6765 -23.6693  -9.2339  -9.1329  -9.0150  -8.9507  -8.8743  -8.8244
    -5.7230  -4.8487  -4.5254  -4.2028  -1.2514  -0.8108  -0.7878   0.0138
     0.0286   0.0562   0.3748   0.4995   0.5707   0.5781   0.8206   0.8971

          k = 0.0000 0.2437 0.3602 ( 23847 PWs)   bands (ev):

   -23.6684 -23.6633  -9.2116  -9.1682  -9.0784  -9.0633  -8.9445  -8.9357
    -5.2961  -4.7535  -4.4427  -4.3472  -1.0457  -0.9935  -0.7998  -0.2148
    -0.1615   0.0256   0.0433   0.5573   0.6242   0.6916   0.7913   0.8522

          k = 0.0000 0.2437-0.7205 ( 23846 PWs)   bands (ev):

   -23.6588 -23.6588  -9.4092  -9.4092  -8.9833  -8.9833  -8.9428  -8.9428
    -4.9683  -4.9683  -4.2535  -4.2534  -1.1142  -1.1142  -0.8040  -0.8040
     0.1759   0.1760   0.2360   0.2361   0.6077   0.6078   0.8080   0.8080

          k = 0.0000-0.4874 0.0000 ( 23834 PWs)   bands (ev):

   -23.6729 -23.6729  -9.1425  -9.1425  -9.0408  -9.0408  -8.8491  -8.8491
    -5.1895  -5.1895  -4.5182  -4.5182  -0.9322  -0.9322  -0.2991  -0.2991
    -0.0579  -0.0579   0.4853   0.4853   0.6273   0.6273   0.7478   0.7478

          k = 0.0000-0.4874 0.3602 ( 23818 PWs)   bands (ev):

   -23.6659 -23.6659  -9.2110  -9.2110  -9.0138  -9.0138  -8.9797  -8.9797
    -5.0230  -5.0230  -4.4228  -4.4228  -0.9777  -0.9777  -0.5670  -0.5670
     0.0959   0.0959   0.3701   0.3701   0.5478   0.5478   0.7635   0.7635

          k = 0.0000-0.4874-0.7205 ( 23820 PWs)   bands (ev):

   -23.6588 -23.6588  -9.4231  -9.4231  -8.9654  -8.9654  -8.9395  -8.9395
    -5.1096  -5.1096  -4.0995  -4.0995  -1.2085  -1.2085  -0.5390  -0.5390
     0.0877   0.0877   0.3083   0.3083   0.4123   0.4123   0.8410   0.8410

          k = 0.2506 0.0000 0.0000 ( 23882 PWs)   bands (ev):

   -23.6765 -23.6693  -9.2227  -9.1476  -9.0022  -8.9712  -8.8743  -8.8244
    -5.7312  -4.9757  -4.2582  -4.2289  -1.4415  -0.5523  -0.5346  -0.4045
     0.1561   0.2045   0.2723   0.3561   0.4350   0.4594   0.8758   0.9138

          k = 0.2506 0.0000 0.3602 ( 23851 PWs)   bands (ev):

   -23.6684 -23.6633  -9.2015  -9.1822  -9.1105  -9.0365  -8.9628  -8.9222
    -5.2462  -4.6514  -4.4447  -4.4370  -1.2138  -0.9568  -0.8072  -0.2669
    -0.2545   0.0420   0.2814   0.4182   0.5606   0.6904   0.9019   0.9304

          k = 0.2506 0.0000-0.7205 ( 23866 PWs)   bands (ev):

   -23.6588 -23.6588  -9.4148  -9.4148  -8.9887  -8.9887  -8.9402  -8.9402
    -4.7473  -4.7473  -4.4521  -4.4521  -1.4890  -1.4890  -0.5172  -0.5172
     0.0905   0.0906   0.4566   0.4567   0.5910   0.5910   0.8412   0.8413

          k = 0.2506 0.2437 0.0000 ( 23836 PWs)   bands (ev):

   -23.6754 -23.6703  -9.2541  -9.1215  -9.0618  -8.9183  -8.8667  -8.8314
    -5.5805  -4.9254  -4.5264  -4.2648  -1.1318  -0.7846  -0.5684  -0.0949
    -0.0278   0.0224   0.3538   0.5063   0.5262   0.6019   0.6606   0.8252

          k = 0.2506 0.2437 0.3602 ( 23877 PWs)   bands (ev):

   -23.6677 -23.6640  -9.2047  -9.1593  -9.1538  -9.0134  -8.9761  -8.9143
    -5.1539  -4.6951  -4.5340  -4.4305  -1.1747  -0.9216  -0.8192  -0.2460
    -0.0860   0.1002   0.2019   0.4310   0.5436   0.6560   0.8155   0.9052

          k = 0.2506 0.2437-0.7205 ( 23876 PWs)   bands (ev):

   -23.6588 -23.6588  -9.4224  -9.3958  -9.0139  -8.9674  -8.9491  -8.9405
    -4.9773  -4.7809  -4.4093  -4.2073  -1.4594  -1.3791  -0.5823  -0.4736
     0.0347   0.0430   0.4192   0.4864   0.6030   0.6472   0.7817   0.8210

          k = 0.2506-0.4874 0.0000 ( 23822 PWs)   bands (ev):

   -23.6729 -23.6729  -9.2269  -9.2269  -8.9569  -8.9569  -8.8487  -8.8487
    -5.1944  -5.1944  -4.5004  -4.5004  -0.8322  -0.8322  -0.3063  -0.3063
    -0.0991  -0.0991   0.4087   0.4087   0.6680   0.6680   0.6763   0.6763

          k = 0.2506-0.4874 0.3602 ( 23840 PWs)   bands (ev):

   -23.6658 -23.6658  -9.1986  -9.1986  -9.0852  -9.0852  -8.9298  -8.9298
    -4.9248  -4.9248  -4.4984  -4.4984  -1.0781  -1.0781  -0.4724  -0.4724
     0.0613   0.0613   0.3964   0.3964   0.5477   0.5477   0.7873   0.7873

          k = 0.2506-0.4874-0.7205 ( 23844 PWs)   bands (ev):

   -23.6587 -23.6587  -9.4047  -9.4047  -8.9935  -8.9935  -8.9473  -8.9473
    -4.9892  -4.9892  -4.1861  -4.1861  -1.3410  -1.3410  -0.5900  -0.5900
     0.1612   0.1612   0.2924   0.2924   0.6417   0.6417   0.8030   0.8030

          k =-0.5013 0.0000 0.0000 ( 23860 PWs)   bands (ev):

   -23.6729 -23.6729  -9.1160  -9.1160  -9.0783  -9.0783  -8.8491  -8.8491
    -5.2737  -5.2737  -4.3356  -4.3356  -1.0010  -1.0010  -0.1791  -0.1791
     0.1955   0.1955   0.2289   0.2289   0.3218   0.3218   0.7599   0.7599

          k =-0.5013 0.0000 0.3602 ( 23836 PWs)   bands (ev):

   -23.6658 -23.6658  -9.2161  -9.2161  -9.0396  -9.0396  -8.9627  -8.9627
    -4.8731  -4.8731  -4.5142  -4.5142  -1.1372  -1.1372  -0.5457  -0.5457
     0.0616   0.0616   0.2660   0.2660   0.6591   0.6591   0.8883   0.8883

          k =-0.5013 0.0000-0.7205 ( 23856 PWs)   bands (ev):

   -23.6587 -23.6587  -9.4341  -9.4341  -8.9757  -8.9757  -8.9353  -8.9353
    -4.7931  -4.7931  -4.3683  -4.3683  -1.7127  -1.7127  -0.2007  -0.2007
     0.0862   0.0862   0.2735   0.2735   0.7867   0.7867   0.7992   0.7992

          k =-0.5013 0.2437 0.0000 ( 23866 PWs)   bands (ev):

   -23.6729 -23.6729  -9.2254  -9.2254  -8.9640  -8.9640  -8.8487  -8.8487
    -5.2403  -5.2403  -4.4056  -4.4056  -0.8822  -0.8822  -0.1772  -0.1772
    -0.0283  -0.0283   0.1766   0.1766   0.5709   0.5709   0.7350   0.7350

          k =-0.5013 0.2437 0.3602 ( 23858 PWs)   bands (ev):

   -23.6658 -23.6658  -9.2020  -9.2020  -9.0898  -9.0898  -8.9287  -8.9287
    -4.8276  -4.8276  -4.5659  -4.5659  -1.1420  -1.1420  -0.5066  -0.5066
     0.0899   0.0899   0.3186   0.3186   0.6457   0.6457   0.8139   0.8139

          k =-0.5013 0.2437-0.7205 ( 23888 PWs)   bands (ev):

   -23.6587 -23.6587  -9.4107  -9.4107  -8.9964  -8.9964  -8.9467  -8.9467
    -4.8132  -4.8132  -4.3381  -4.3381  -1.6027  -1.6027  -0.4163  -0.4163
     0.1295   0.1295   0.3524   0.3524   0.7163   0.7163   0.8561   0.8561

          k =-0.5013-0.4874 0.0000 ( 23836 PWs)   bands (ev):

   -23.6728 -23.6728  -9.2762  -9.2762  -8.9081  -8.9081  -8.8482  -8.8482
    -5.2016  -5.2016  -4.4793  -4.4793  -0.7106  -0.7106  -0.3374  -0.3374
    -0.1363  -0.1363   0.3754   0.3754   0.5619   0.5619   0.7047   0.7047

          k =-0.5013-0.4874 0.3602 ( 23876 PWs)   bands (ev):

   -23.6658 -23.6658  -9.1753  -9.1753  -9.1385  -9.1385  -8.9090  -8.9090
    -4.7506  -4.7506  -4.6488  -4.6488  -1.1286  -1.1286  -0.5433  -0.5433
     0.2658   0.2658   0.3862   0.3862   0.5578   0.5578   0.7077   0.7077

          k =-0.5013-0.4874-0.7205 ( 23880 PWs)   bands (ev):

   -23.6587 -23.6587  -9.3838  -9.3838  -9.0242  -9.0242  -8.9546  -8.9546
    -4.8318  -4.8318  -4.3090  -4.3090  -1.4356  -1.4356  -0.7233  -0.7233
     0.3868   0.3868   0.4096   0.4096   0.5800   0.5800   0.8147   0.8147

     highest occupied level (ev):     0.9820

!    total energy              =    -156.47476767 Ry
     estimated scf accuracy    <          8.6E-14 Ry

     The total energy is the sum of the following terms:
     one-electron contribution =     -20.45570285 Ry
     hartree contribution      =      24.91659284 Ry
     xc contribution           =     -49.16253932 Ry
     ewald contribution        =    -111.77311835 Ry

     convergence has been achieved in   3 iterations

     Forces acting on atoms (cartesian axes, Ry/au):

     atom    1 type  2   force =     0.00000000    0.00000000   -0.00000812
     atom    2 type  2   force =     0.00000000    0.00000000    0.00000812
     atom    3 type  1   force =     0.00000382   -0.00000069   -0.00000246
     atom    4 type  1   force =    -0.00000382    0.00000069   -0.00000246
     atom    5 type  1   force =     0.00000382    0.00000069    0.00000246
     atom    6 type  1   force =    -0.00000382   -0.00000069    0.00000246
     atom    7 type  3   force =     0.00000379    0.00000287    0.00000138
     atom    8 type  3   force =    -0.00000379   -0.00000287    0.00000138
     atom    9 type  3   force =     0.00000379   -0.00000287   -0.00000138
     atom   10 type  3   force =    -0.00000379    0.00000287   -0.00000138
     atom   11 type  3   force =     0.00001007   -0.00000660    0.00000594
     atom   12 type  3   force =    -0.00001007    0.00000660    0.00000594
     atom   13 type  3   force =     0.00001007    0.00000660   -0.00000594
     atom   14 type  3   force =    -0.00001007   -0.00000660   -0.00000594
     atom   15 type  3   force =     0.00000061   -0.00000306   -0.00000167
     atom   16 type  3   force =    -0.00000061    0.00000306   -0.00000167
     atom   17 type  3   force =     0.00000061    0.00000306    0.00000167
     atom   18 type  3   force =    -0.00000061   -0.00000306    0.00000167
     atom   19 type  3   force =     0.00000054   -0.00000275   -0.00000034
     atom   20 type  3   force =    -0.00000054    0.00000275   -0.00000034
     atom   21 type  3   force =     0.00000054    0.00000275    0.00000034
     atom   22 type  3   force =    -0.00000054   -0.00000275    0.00000034

     Total force =     0.000033     Total SCF correction =     0.000000


     Computing stress (Cartesian axis) and pressure

          total   stress  (Ry/bohr**3)                   (kbar)     P=        1.81
   0.00001225   0.00000000   0.00000000            1.80        0.00        0.00
   0.00000000   0.00001232   0.00000000            0.00        1.81        0.00
   0.00000000   0.00000000   0.00001227            0.00        0.00        1.81

     Volume is kept fixed: isostatic pressure set to zero
     Message from routine bfgs:
     history already reset at previous step: exiting
     Energy error            =      1.3E-09 Ry
     Gradient error          =      1.0E-05 Ry/Bohr
     Cell gradient error     =      5.6E-03 kbar
ibrav =      8
 celldm(1) =     12.54530691
 celldm(2) =      1.02836833
 celldm(3) =      0.69575696
Input lattice vectors:
     0.99748019     0.00000000     0.00000000
     0.00000000     1.02577704     0.00000000
     0.00000000     0.00000000     0.69400379
New lattice vectors in INITIAL alat:
     0.99748019     0.00000000     0.00000000
     0.00000000     1.02577704     0.00000000
     0.00000000     0.00000000     0.69400379
New lattice vectors in NEW alat (for information only):
     1.00000000     0.00000000     0.00000000
     0.00000000     1.02836833     0.00000000
     0.00000000     0.00000000     0.69575696
Discrepancy in bohr =     0.000000    0.000000    0.000000

     bfgs failed after  48 scf cycles and  47 bfgs steps, convergence not achieved
     (criteria: energy <  1.0E-05 Ry, force <  1.0E-05 Ry/Bohr, cell <  5.0E-01 kbar)

     End of BFGS Geometry Optimization

     Final enthalpy           =    -156.4747676749 Ry

     File ./pwscf.bfgs deleted, as requested
Begin final coordinates
     new unit-cell volume =   1412.70059 a.u.^3 (   209.34063 Ang^3 )
     density =      2.64957 g/cm^3

CELL_PARAMETERS (alat= 12.57699853)
   0.997480192   0.000000000   0.000000000
   0.000000000   1.025777041   0.000000000
   0.000000000   0.000000000   0.694003787

ATOMIC_POSITIONS (crystal)
Ba               0.5000000000        0.5000000000        0.5000183470
Ba               0.0000000000        0.0000000000        0.9999816530
B                0.6087522878        0.2381836465        0.0000019225
B                0.3912477122        0.7618163535        0.0000019225
B                0.1087522878        0.2618163535        0.4999980775
B                0.8912477122        0.7381836465        0.4999980775
H                0.4319651627        0.2924123516        0.0000103309
H                0.5680348373        0.7075876484        0.0000103309
H                0.9319651627        0.2075876484        0.4999896691
H                0.0680348373        0.7924123516        0.4999896691
H                0.7221955169        0.3822761835       -0.0000143099
H                0.2778044831        0.6177238165       -0.0000143099
H                0.2221955169        0.1177238165        0.5000143099
H                0.7778044831        0.8822761835        0.5000143099
H                0.6374120761        0.1406042355        0.7803050370
H                0.3625879239        0.8593957645        0.7803050370
H                0.1374120761        0.3593957645        0.7196949630
H                0.8625879239        0.6406042355        0.7196949630
H                0.3625721899        0.8593982990        0.2196923625
H                0.6374278101        0.1406017010        0.2196923625
H                0.8625721899        0.6406017010        0.2803076375
H                0.1374278101        0.3593982990        0.2803076375
End final coordinates



     Writing config-only to output data dir ./pwscf.save/ :
     XML data file

     Writing all to output data dir ./pwscf.save/ :
     XML data file, charge density, pseudopotentials, collected wavefunctions

     init_run     :      4.34s CPU      4.59s WALL (       1 calls)
     electrons    :   2303.29s CPU   2383.72s WALL (      48 calls)
     update_pot   :      4.69s CPU      5.14s WALL (      47 calls)
     forces       :     80.09s CPU     80.84s WALL (      48 calls)
     stress       :    282.55s CPU    283.59s WALL (      48 calls)

     Called by init_run:
     wfcinit      :      3.25s CPU      3.37s WALL (       1 calls)
     potinit      :      0.29s CPU      0.31s WALL (       1 calls)
     hinit0       :      0.59s CPU      0.63s WALL (       1 calls)

     Called by electrons:
     c_bands      :   1983.11s CPU   2049.84s WALL (     334 calls)
     sum_band     :    275.65s CPU    287.32s WALL (     334 calls)
     v_of_rho     :     20.27s CPU     21.01s WALL (     335 calls)
     newd         :     26.17s CPU     26.86s WALL (     335 calls)
     mix_rho      :      1.80s CPU      1.90s WALL (     334 calls)

     Called by c_bands:
     init_us_2    :     55.69s CPU     56.28s WALL (   20655 calls)
     cegterg      :   1882.21s CPU   1948.34s WALL (    9018 calls)

     Called by *egterg:
     cdiaghg      :     28.81s CPU     28.98s WALL (   32325 calls)
     h_psi        :   1239.99s CPU   1304.49s WALL (   34890 calls)
     s_psi        :    265.94s CPU    266.48s WALL (   34890 calls)
     g_psi        :      5.23s CPU      5.25s WALL (   25845 calls)

     Called by h_psi:
     h_psi:calbec :    279.14s CPU    284.76s WALL (   34890 calls)
     vloc_psi     :    694.87s CPU    753.25s WALL (   34890 calls)
     add_vuspsi   :    262.92s CPU    263.56s WALL (   34890 calls)

     General routines
     calbec       :    441.35s CPU    448.60s WALL (   50388 calls)
     fft          :     12.05s CPU     12.74s WALL (    5553 calls)
     ffts         :      0.81s CPU      0.83s WALL (     669 calls)
     fftw         :    718.31s CPU    778.50s WALL ( 1486770 calls)
     interpolate  :      1.44s CPU      1.50s WALL (     335 calls)
     davcio       :      0.00s CPU      0.03s WALL (      27 calls)

     Parallel routines

     PWSCF        :  44m40.78s CPU  46m 4.82s WALL


   This run was terminated on:  15: 0:12  12Jul2024            

=------------------------------------------------------------------------------=
   JOB DONE.
=------------------------------------------------------------------------------=
