
     Program PWSCF v.7.3.1 starts on  6Aug2024 at 14:42:27 

     This program is part of the open-source Quantum ESPRESSO suite
     for quantum simulation of materials; please cite
         "P. Giannozzi et al., J. Phys.:Condens. Matter 21 395502 (2009);
         "P. Giannozzi et al., J. Phys.:Condens. Matter 29 465901 (2017);
         "P. Giannozzi et al., J. Chem. Phys. 152 154105 (2020);
          URL http://www.quantum-espresso.org", 
     in publications or presentations arising from this work. More details at
     http://www.quantum-espresso.org/quote

     Parallel version (MPI), running on    24 processors

     MPI processes distributed on     1 nodes
     93704 MiB available memory on the printing compute node when the environment starts

     Waiting for input...
     Reading input from standard input

     Current dimensions of program PWSCF are:
     Max number of different atomic species (ntypx) = 10
     Max number of k-points (npk) =  40000
     Max angular momentum in pseudopotentials (lmaxx) =  4

     R & G space division:  proc/nbgrp/npool/nimage =      24
     Subspace diagonalization in iterative solution of the eigenvalue problem:
     a serial algorithm will be used


     Parallelization info
     --------------------
     sticks:   dense  smooth     PW     G-vecs:    dense   smooth      PW
     Min         468     233     64                25548     9031    1302
     Max         469     234     65                25549     9034    1305
     Sum       11251    5615   1547               613171   216791   31265

     Using Slab Decomposition


     Title: 
     volume variation                                                           


     bravais-lattice index     =            8
     lattice parameter (alat)  =      13.1245  a.u.
     unit-cell volume          =    1605.3416 (a.u.)^3
     number of atoms/cell      =           22
     number of atomic types    =            3
     number of electrons       =        48.00
     number of Kohn-Sham states=           24
     kinetic-energy cutoff     =     100.0000  Ry
     charge density cutoff     =     800.0000  Ry
     scf convergence threshold =      1.0E-10
     mixing beta               =       0.7000
     number of iterations used =            8  plain     mixing
     energy convergence thresh.=      1.0E-05
     force convergence thresh. =      1.0E-05
     press convergence thresh. =      5.0E-01
     Exchange-correlation= PBESOL
                           (   1   4  10   8   0   0   0)
     nstep                     =          300


     celldm(1)=  13.124501  celldm(2)=   1.025571  celldm(3)=   0.692394
     celldm(4)=   0.000000  celldm(5)=   0.000000  celldm(6)=   0.000000

     crystal axes: (cart. coord. in units of alat)
               a(1) = (   1.000000   0.000000   0.000000 )  
               a(2) = (   0.000000   1.025571   0.000000 )  
               a(3) = (   0.000000   0.000000   0.692394 )  

     reciprocal axes: (cart. coord. in units 2 pi/alat)
               b(1) = (  1.000000  0.000000  0.000000 )  
               b(2) = (  0.000000  0.975067  0.000000 )  
               b(3) = (  0.000000  0.000000  1.444264 )  


     PseudoPot. # 1 for B  read from file:
     /home/mehlhorn/pseudos/b_pbesol_v1.4.uspp.F.UPF
     MD5 check sum: 369b69bef2c3aeed4453bd8b804fd6a8
     Pseudo is Ultrasoft + core correction, Zval =  3.0
     Generated by new atomic code, or converted to UPF format
     Using radial grid of  781 points,  4 beta functions with: 
                l(1) =   0
                l(2) =   0
                l(3) =   1
                l(4) =   1
     Q(r) pseudized with  8 coefficients,  rinner =    1.100   1.100   1.100


     PseudoPot. # 2 for Ba read from file:
     /home/mehlhorn/pseudos/Ba.nc.z_10.oncvpsp4.dojo.v4-sp.upf
     MD5 check sum: c10ed334bb677c0554edec7181ce9143
     Pseudo is Norm-conserving + core correction, Zval = 10.0
     Generated using ONCVPSP code by D. R. Hamann
     Using radial grid of 1938 points,  8 beta functions with: 
                l(1) =   0
                l(2) =   0
                l(3) =   1
                l(4) =   1
                l(5) =   2
                l(6) =   2
                l(7) =   3
                l(8) =   3

     PseudoPot. # 3 for H  read from file:
     /home/mehlhorn/pseudos/H_ONCV_PBEsol-1.0.upf
     MD5 check sum: 398ef8f67c0a7342c05c87c5e19ea467
     Pseudo is Norm-conserving, Zval =  1.0
     Generated using ONCVPSP code by D. R. Hamann
     Using radial grid of 1180 points,  2 beta functions with: 
                l(1) =   0
                l(2) =   0

     atomic species   valence    mass     pseudopotential
     B                 3.00    10.81100     B ( 1.00)
     Ba               10.00   137.32700     Ba( 1.00)
     H                 1.00     1.00794     H ( 1.00)

      4 Sym. Ops. (no inversion) found ( 2 have fractional translation)



   Cartesian axes

     site n.     atom                  positions (alat units)
         1        Ba     tau(   1) = (   0.5000000   0.5127855   0.3462657  )
         2        Ba     tau(   2) = (   0.0000000   0.0000000   0.6923255  )
         3        B      tau(   3) = (   0.6102570   0.2453190   0.0000455  )
         4        B      tau(   4) = (   0.3897430   0.7802519   0.0000455  )
         5        B      tau(   5) = (   0.1102570   0.2674665   0.3461516  )
         6        B      tau(   6) = (   0.8897430   0.7581045   0.3461516  )
         7        H      tau(   7) = (   0.4340973   0.2996264   0.0001599  )
         8        H      tau(   8) = (   0.5659027   0.7259445   0.0001599  )
         9        H      tau(   9) = (   0.9340973   0.2131590   0.3460372  )
        10        H      tau(  10) = (   0.0659027   0.8124119   0.3460372  )
        11        H      tau(  11) = (   0.7220603   0.3933629  -0.0000058  )
        12        H      tau(  12) = (   0.2779397   0.6322081  -0.0000058  )
        13        H      tau(  13) = (   0.2220603   0.1194226   0.3462029  )
        14        H      tau(  14) = (   0.7779397   0.9061483   0.3462029  )
        15        H      tau(  15) = (   0.6392499   0.1457279   0.5404125  )
        16        H      tau(  16) = (   0.3607501   0.8798430   0.5404125  )
        17        H      tau(  17) = (   0.1392499   0.3670576   0.4981787  )
        18        H      tau(  18) = (   0.8607501   0.6585133   0.4981787  )
        19        H      tau(  19) = (   0.3605328   0.8798946   0.1519977  )
        20        H      tau(  20) = (   0.6394672   0.1456763   0.1519977  )
        21        H      tau(  21) = (   0.8605328   0.6584617   0.1941994  )
        22        H      tau(  22) = (   0.1394672   0.3671092   0.1941994  )

     number of k points=    27
                       cart. coord. in units 2pi/alat
        k(    1) = (   0.0000000   0.0000000   0.0000000), wk =   0.0312500
        k(    2) = (   0.0000000   0.0000000   0.3610660), wk =   0.0625000
        k(    3) = (   0.0000000   0.0000000  -0.7221320), wk =   0.0312500
        k(    4) = (   0.0000000   0.2437667   0.0000000), wk =   0.0625000
        k(    5) = (   0.0000000   0.2437667   0.3610660), wk =   0.1250000
        k(    6) = (   0.0000000   0.2437667  -0.7221320), wk =   0.0625000
        k(    7) = (   0.0000000  -0.4875333   0.0000000), wk =   0.0312500
        k(    8) = (   0.0000000  -0.4875333   0.3610660), wk =   0.0625000
        k(    9) = (   0.0000000  -0.4875333  -0.7221320), wk =   0.0312500
        k(   10) = (   0.2500000   0.0000000   0.0000000), wk =   0.0625000
        k(   11) = (   0.2500000   0.0000000   0.3610660), wk =   0.1250000
        k(   12) = (   0.2500000   0.0000000  -0.7221320), wk =   0.0625000
        k(   13) = (   0.2500000   0.2437667   0.0000000), wk =   0.1250000
        k(   14) = (   0.2500000   0.2437667   0.3610660), wk =   0.2500000
        k(   15) = (   0.2500000   0.2437667  -0.7221320), wk =   0.1250000
        k(   16) = (   0.2500000  -0.4875333   0.0000000), wk =   0.0625000
        k(   17) = (   0.2500000  -0.4875333   0.3610660), wk =   0.1250000
        k(   18) = (   0.2500000  -0.4875333  -0.7221320), wk =   0.0625000
        k(   19) = (  -0.5000000   0.0000000   0.0000000), wk =   0.0312500
        k(   20) = (  -0.5000000   0.0000000   0.3610660), wk =   0.0625000
        k(   21) = (  -0.5000000   0.0000000  -0.7221320), wk =   0.0312500
        k(   22) = (  -0.5000000   0.2437667   0.0000000), wk =   0.0625000
        k(   23) = (  -0.5000000   0.2437667   0.3610660), wk =   0.1250000
        k(   24) = (  -0.5000000   0.2437667  -0.7221320), wk =   0.0625000
        k(   25) = (  -0.5000000  -0.4875333   0.0000000), wk =   0.0312500
        k(   26) = (  -0.5000000  -0.4875333   0.3610660), wk =   0.0625000
        k(   27) = (  -0.5000000  -0.4875333  -0.7221320), wk =   0.0312500

     Dense  grid:   613171 G-vectors     FFT dimensions: ( 120, 128,  90)

     Smooth grid:   216791 G-vectors     FFT dimensions: (  90,  90,  60)

     Estimated max dynamical RAM per process >      97.81 MB

     Estimated total dynamical RAM >       2.29 GB

     Initial potential from superposition of free atoms

     starting charge      47.9682, renormalised to      48.0000
     Starting wfcs are   42 randomized atomic wfcs

     total cpu time spent up to now is       12.6 secs

     Self-consistent Calculation

     iteration #  1     ecut=   100.00 Ry     beta= 0.70
     Davidson diagonalization with overlap
     ethr =  1.00E-02,  avg # of iterations =  2.0

     total cpu time spent up to now is       29.4 secs

     total energy              =    -155.95590341 Ry
     estimated scf accuracy    <       1.83565083 Ry

     iteration #  2     ecut=   100.00 Ry     beta= 0.70
     Davidson diagonalization with overlap
     ethr =  3.82E-03,  avg # of iterations =  2.0

     total cpu time spent up to now is       46.0 secs

     total energy              =    -156.37262294 Ry
     estimated scf accuracy    <       0.35650906 Ry

     iteration #  3     ecut=   100.00 Ry     beta= 0.70
     Davidson diagonalization with overlap
     ethr =  7.43E-04,  avg # of iterations =  2.0

     total cpu time spent up to now is       62.5 secs

     total energy              =    -156.43271866 Ry
     estimated scf accuracy    <       0.00448615 Ry

     iteration #  4     ecut=   100.00 Ry     beta= 0.70
     Davidson diagonalization with overlap
     ethr =  9.35E-06,  avg # of iterations =  5.2

     total cpu time spent up to now is       86.5 secs

     total energy              =    -156.43534136 Ry
     estimated scf accuracy    <       0.00189481 Ry

     iteration #  5     ecut=   100.00 Ry     beta= 0.70
     Davidson diagonalization with overlap
     ethr =  3.95E-06,  avg # of iterations =  3.0

     total cpu time spent up to now is      103.6 secs

     total energy              =    -156.43598155 Ry
     estimated scf accuracy    <       0.00019948 Ry

     iteration #  6     ecut=   100.00 Ry     beta= 0.70
     Davidson diagonalization with overlap
     ethr =  4.16E-07,  avg # of iterations =  4.0

     total cpu time spent up to now is      122.4 secs

     total energy              =    -156.43604983 Ry
     estimated scf accuracy    <       0.00000181 Ry

     iteration #  7     ecut=   100.00 Ry     beta= 0.70
     Davidson diagonalization with overlap
     ethr =  3.78E-09,  avg # of iterations =  9.0

     total cpu time spent up to now is      160.5 secs

     total energy              =    -156.43606317 Ry
     estimated scf accuracy    <       0.00000148 Ry

     iteration #  8     ecut=   100.00 Ry     beta= 0.70
     Davidson diagonalization with overlap
     ethr =  3.09E-09,  avg # of iterations =  2.1

     total cpu time spent up to now is      177.1 secs

     total energy              =    -156.43606345 Ry
     estimated scf accuracy    <       0.00000002 Ry

     iteration #  9     ecut=   100.00 Ry     beta= 0.70
     Davidson diagonalization with overlap
     ethr =  4.52E-11,  avg # of iterations =  6.1

     total cpu time spent up to now is      202.4 secs

     total energy              =    -156.43606348 Ry
     estimated scf accuracy    <          3.0E-09 Ry

     iteration # 10     ecut=   100.00 Ry     beta= 0.70
     Davidson diagonalization with overlap
     ethr =  6.31E-12,  avg # of iterations =  3.5

     total cpu time spent up to now is      221.7 secs

     total energy              =    -156.43606348 Ry
     estimated scf accuracy    <          3.2E-10 Ry

     iteration # 11     ecut=   100.00 Ry     beta= 0.70
     Davidson diagonalization with overlap
     ethr =  6.67E-13,  avg # of iterations =  5.1

     total cpu time spent up to now is      244.1 secs

     End of self-consistent calculation

          k = 0.0000 0.0000 0.0000 ( 27095 PWs)   bands (ev):

   -24.9266 -24.9219 -10.2770 -10.2276 -10.1099 -10.0888 -10.0521 -10.0138
    -6.2870  -5.4248  -4.9924  -4.8159  -2.0722  -1.2713  -1.1965  -0.8301
    -0.5318  -0.5289  -0.5072  -0.3484  -0.2189   0.1450   0.1826   0.2202

          k = 0.0000 0.0000 0.3611 ( 27081 PWs)   bands (ev):

   -24.9222 -24.9189 -10.2185 -10.2080 -10.1889 -10.1863 -10.1002 -10.0890
    -5.9106  -5.2610  -5.0887  -4.9673  -1.7707  -1.5298  -1.0727  -0.9976
    -0.9001  -0.8097  -0.4820  -0.2306  -0.0184  -0.0056   0.0478   0.1941

          k = 0.0000 0.0000-0.7221 ( 27084 PWs)   bands (ev):

   -24.9169 -24.9169 -10.3482 -10.3481 -10.1287 -10.1287 -10.1122 -10.1121
    -5.3189  -5.3183  -5.1553  -5.1548  -1.5265  -1.5262  -1.5044  -1.5030
    -0.5455  -0.5444  -0.4942  -0.4930  -0.0056  -0.0053   0.0306   0.0312

          k = 0.0000 0.2438 0.0000 ( 27145 PWs)   bands (ev):

   -24.9259 -24.9226 -10.2581 -10.2097 -10.1378 -10.1089 -10.0464 -10.0193
    -6.1314  -5.3650  -5.2125  -4.9103  -1.7714  -1.4220  -1.2874  -0.6228
    -0.5989  -0.5631  -0.3188  -0.2270  -0.1417  -0.1276   0.0721   0.1558

          k = 0.0000 0.2438 0.3611 ( 27120 PWs)   bands (ev):

   -24.9218 -24.9194 -10.2390 -10.2092 -10.1712 -10.1708 -10.1028 -10.1010
    -5.8136  -5.3155  -5.1374  -5.0085  -1.5973  -1.5537  -1.3153  -0.8364
    -0.7921  -0.5968  -0.5953  -0.1892  -0.0831  -0.0697   0.0365   0.0949

          k = 0.0000 0.2438-0.7221 ( 27078 PWs)   bands (ev):

   -24.9169 -24.9169 -10.3572 -10.3571 -10.1185 -10.1185 -10.1116 -10.1116
    -5.4650  -5.4649  -5.0061  -5.0061  -1.6059  -1.6053  -1.3793  -1.3787
    -0.4824  -0.4807  -0.4599  -0.4599  -0.1370  -0.1368   0.0244   0.0247

          k = 0.0000-0.4875 0.0000 ( 27130 PWs)   bands (ev):

   -24.9243 -24.9243 -10.2087 -10.2087 -10.1541 -10.1541 -10.0327 -10.0327
    -5.7288  -5.7288  -5.1247  -5.1247  -1.5249  -1.5249  -0.8786  -0.8786
    -0.6717  -0.6717  -0.2079  -0.2079  -0.1172  -0.1172   0.0250   0.0250

          k = 0.0000-0.4875 0.3611 ( 27118 PWs)   bands (ev):

   -24.9206 -24.9206 -10.2352 -10.2352 -10.1467 -10.1467 -10.1166 -10.1166
    -5.5669  -5.5669  -5.0932  -5.0932  -1.5336  -1.5336  -1.1259  -1.1259
    -0.5859  -0.5859  -0.3242  -0.3242  -0.1637  -0.1637   0.0231   0.0231

          k = 0.0000-0.4875-0.7221 ( 27052 PWs)   bands (ev):

   -24.9169 -24.9169 -10.3654 -10.3654 -10.1137 -10.1137 -10.1063 -10.1063
    -5.5483  -5.5483  -4.9200  -4.9200  -1.6787  -1.6787  -1.1979  -1.1979
    -0.5077  -0.5077  -0.4035  -0.4035  -0.3015  -0.3015   0.0585   0.0585

          k = 0.2500 0.0000 0.0000 ( 27118 PWs)   bands (ev):

   -24.9259 -24.9226 -10.2536 -10.2148 -10.1342 -10.1162 -10.0464 -10.0193
    -6.1376  -5.4908  -5.0061  -4.9297  -1.9040  -1.1664  -1.1164  -0.9548
    -0.5257  -0.4533  -0.3999  -0.3310  -0.2478  -0.2254   0.1252   0.1729

          k = 0.2500 0.0000 0.3611 ( 27150 PWs)   bands (ev):

   -24.9217 -24.9194 -10.2315 -10.2176 -10.1907 -10.1542 -10.1133 -10.0924
    -5.7876  -5.2783  -5.1036  -5.0681  -1.7390  -1.4946  -1.3476  -0.8897
    -0.8245  -0.6324  -0.3977  -0.2728  -0.1745  -0.0375   0.1367   0.1465

          k = 0.2500 0.0000-0.7221 ( 27084 PWs)   bands (ev):

   -24.9169 -24.9169 -10.3595 -10.3594 -10.1224 -10.1223 -10.1089 -10.1089
    -5.3060  -5.3055  -5.1475  -5.1472  -1.9314  -1.9309  -1.1486  -1.1481
    -0.5327  -0.5325  -0.2923  -0.2907  -0.1558  -0.1556   0.0674   0.0677

          k = 0.2500 0.2438 0.0000 ( 27135 PWs)   bands (ev):

   -24.9254 -24.9231 -10.2694 -10.1997 -10.1627 -10.0922 -10.0423 -10.0231
    -6.0142  -5.4601  -5.1828  -4.9815  -1.6548  -1.3678  -1.1288  -0.7077
    -0.6443  -0.6043  -0.3339  -0.2188  -0.1791  -0.1360  -0.0344   0.0871

          k = 0.2500 0.2438 0.3611 ( 27112 PWs)   bands (ev):

   -24.9214 -24.9197 -10.2308 -10.2130 -10.2079 -10.1447 -10.1156 -10.0903
    -5.7049  -5.2804  -5.2055  -5.0787  -1.6947  -1.4533  -1.3870  -0.8852
    -0.7012  -0.5631  -0.4530  -0.2691  -0.1729  -0.0673   0.0575   0.1305

          k = 0.2500 0.2438-0.7221 ( 27094 PWs)   bands (ev):

   -24.9169 -24.9169 -10.3642 -10.3501 -10.1322 -10.1152 -10.1102 -10.1100
    -5.4558  -5.3502  -5.1002  -4.9938  -1.9073  -1.8536  -1.1929  -1.1487
    -0.5687  -0.5623  -0.3130  -0.2820  -0.1090  -0.1053   0.0143   0.0643

          k = 0.2500-0.4875 0.0000 ( 27082 PWs)   bands (ev):

   -24.9242 -24.9242 -10.2528 -10.2528 -10.1117 -10.1117 -10.0326 -10.0326
    -5.6979  -5.6979  -5.1557  -5.1557  -1.4212  -1.4212  -0.8941  -0.8941
    -0.6978  -0.6978  -0.2671  -0.2671  -0.0923  -0.0923  -0.0383  -0.0383

          k = 0.2500-0.4875 0.3611 ( 27106 PWs)   bands (ev):

   -24.9206 -24.9206 -10.2303 -10.2303 -10.1748 -10.1748 -10.0973 -10.0973
    -5.4943  -5.4943  -5.1559  -5.1559  -1.6003  -1.6003  -1.0979  -1.0979
    -0.5737  -0.5737  -0.2902  -0.2902  -0.1692  -0.1692   0.0354   0.0354

          k = 0.2500-0.4875-0.7221 ( 27080 PWs)   bands (ev):

   -24.9169 -24.9169 -10.3554 -10.3554 -10.1228 -10.1228 -10.1130 -10.1130
    -5.4741  -5.4741  -4.9728  -4.9728  -1.8175  -1.8175  -1.2373  -1.2373
    -0.4742  -0.4742  -0.3621  -0.3621  -0.1336  -0.1336   0.0511   0.0511

          k =-0.5000 0.0000 0.0000 ( 27118 PWs)   bands (ev):

   -24.9242 -24.9242 -10.1995 -10.1995 -10.1677 -10.1677 -10.0327 -10.0327
    -5.7831  -5.7831  -5.0185  -5.0185  -1.5277  -1.5277  -0.8027  -0.8027
    -0.4818  -0.4818  -0.4353  -0.4353  -0.3432  -0.3432   0.0420   0.0420

          k =-0.5000 0.0000 0.3611 ( 27146 PWs)   bands (ev):

   -24.9206 -24.9206 -10.2358 -10.2358 -10.1587 -10.1587 -10.1097 -10.1097
    -5.4949  -5.4949  -5.1288  -5.1288  -1.6501  -1.6501  -1.1433  -1.1433
    -0.5799  -0.5799  -0.4090  -0.4090  -0.0741  -0.0741   0.1184   0.1184

          k =-0.5000 0.0000-0.7221 ( 27108 PWs)   bands (ev):

   -24.9169 -24.9169 -10.3699 -10.3699 -10.1186 -10.1186 -10.1038 -10.1038
    -5.2979  -5.2979  -5.1337  -5.1337  -2.1182  -2.1182  -0.9313  -0.9313
    -0.5492  -0.5492  -0.3794  -0.3794  -0.0077  -0.0077   0.0514   0.0514

          k =-0.5000 0.2438 0.0000 ( 27144 PWs)   bands (ev):

   -24.9242 -24.9242 -10.2522 -10.2522 -10.1145 -10.1145 -10.0326 -10.0326
    -5.7311  -5.7311  -5.0968  -5.0968  -1.4281  -1.4281  -0.8105  -0.8105
    -0.6394  -0.6394  -0.4653  -0.4653  -0.1688  -0.1688   0.0164   0.0164

          k =-0.5000 0.2438 0.3611 ( 27114 PWs)   bands (ev):

   -24.9206 -24.9206 -10.2307 -10.2307 -10.1782 -10.1782 -10.0963 -10.0963
    -5.4479  -5.4479  -5.1840  -5.1840  -1.6497  -1.6497  -1.1298  -1.1298
    -0.5438  -0.5438  -0.3625  -0.3625  -0.0822  -0.0822   0.0571   0.0571

          k =-0.5000 0.2438-0.7221 ( 27092 PWs)   bands (ev):

   -24.9169 -24.9169 -10.3579 -10.3579 -10.1246 -10.1246 -10.1123 -10.1123
    -5.3439  -5.3439  -5.0843  -5.0843  -2.0395  -2.0395  -1.0988  -1.0988
    -0.5066  -0.5066  -0.3299  -0.3299  -0.0349  -0.0349   0.0865   0.0865

          k =-0.5000-0.4875 0.0000 ( 27116 PWs)   bands (ev):

   -24.9242 -24.9242 -10.2792 -10.2792 -10.0871 -10.0871 -10.0324 -10.0324
    -5.6642  -5.6642  -5.1890  -5.1890  -1.2785  -1.2785  -0.9572  -0.9572
    -0.7219  -0.7219  -0.2764  -0.2764  -0.1434  -0.1434  -0.0693  -0.0693

          k =-0.5000-0.4875 0.3611 ( 27072 PWs)   bands (ev):

   -24.9206 -24.9206 -10.2229 -10.2229 -10.1959 -10.1959 -10.0875 -10.0875
    -5.3604  -5.3604  -5.2796  -5.2796  -1.6299  -1.6299  -1.1791  -1.1791
    -0.4106  -0.4106  -0.2700  -0.2700  -0.1399  -0.1399  -0.0556  -0.0556

          k =-0.5000-0.4875-0.7221 ( 27088 PWs)   bands (ev):

   -24.9169 -24.9169 -10.3443 -10.3443 -10.1361 -10.1361 -10.1167 -10.1167
    -5.3770  -5.3770  -5.0479  -5.0479  -1.9137  -1.9137  -1.3418  -1.3418
    -0.3191  -0.3191  -0.2693  -0.2693  -0.1284  -0.1284   0.0559   0.0559

     highest occupied level (ev):     0.2202

!    total energy              =    -156.43606348 Ry
     estimated scf accuracy    <          3.0E-11 Ry

     The total energy is the sum of the following terms:
     one-electron contribution =     -27.77367515 Ry
     hartree contribution      =      26.75681942 Ry
     xc contribution           =     -48.56242731 Ry
     ewald contribution        =    -106.85678044 Ry

     convergence has been achieved in  11 iterations

     Forces acting on atoms (cartesian axes, Ry/au):

     atom    1 type  2   force =     0.00000000    0.00000000    0.00000718
     atom    2 type  2   force =     0.00000000    0.00000000   -0.00000718
     atom    3 type  1   force =     0.00059897    0.00312420   -0.00001684
     atom    4 type  1   force =    -0.00059897   -0.00312420   -0.00001684
     atom    5 type  1   force =     0.00059897   -0.00312420    0.00001684
     atom    6 type  1   force =    -0.00059897    0.00312420    0.00001684
     atom    7 type  3   force =     0.02896894   -0.00741107   -0.00002520
     atom    8 type  3   force =    -0.02896894    0.00741107   -0.00002520
     atom    9 type  3   force =     0.02896894    0.00741107    0.00002520
     atom   10 type  3   force =    -0.02896894   -0.00741107    0.00002520
     atom   11 type  3   force =    -0.01912627   -0.02321887    0.00001049
     atom   12 type  3   force =     0.01912627    0.02321887    0.00001049
     atom   13 type  3   force =    -0.01912627    0.02321887   -0.00001049
     atom   14 type  3   force =     0.01912627   -0.02321887   -0.00001049
     atom   15 type  3   force =    -0.00362999    0.01704472    0.02587893
     atom   16 type  3   force =     0.00362999   -0.01704472    0.02587893
     atom   17 type  3   force =    -0.00362999   -0.01704472   -0.02587893
     atom   18 type  3   force =     0.00362999    0.01704472   -0.02587893
     atom   19 type  3   force =     0.00369911   -0.01706531   -0.02587979
     atom   20 type  3   force =    -0.00369911    0.01706531   -0.02587979
     atom   21 type  3   force =     0.00369911    0.01706531    0.02587979
     atom   22 type  3   force =    -0.00369911   -0.01706531    0.02587979

     Total force =     0.122593     Total SCF correction =     0.000003


     Computing stress (Cartesian axis) and pressure

          total   stress  (Ry/bohr**3)                   (kbar)     P=      -58.75
  -0.00037266   0.00000000   0.00000000          -54.82        0.00        0.00
   0.00000000  -0.00037963   0.00000000            0.00      -55.85        0.00
   0.00000000   0.00000000  -0.00044583            0.00        0.00      -65.58

     Volume is kept fixed: isostatic pressure set to zero

     BFGS Geometry Optimization
     Energy error            =      0.0E+00 Ry
     Gradient error          =      2.9E-02 Ry/Bohr
     Cell gradient error     =      6.8E+00 kbar

     number of scf cycles    =   1
     number of bfgs steps    =   0

     enthalpy           new  =    -156.4360634821 Ry

     new trust radius        =       0.0312197308 bohr
ibrav =      8
 celldm(1) =     13.13327080
 celldm(2) =      1.02539220
 celldm(3) =      0.69112841
Input lattice vectors:
     1.00066823     0.00000000     0.00000000
     0.00000000     1.02607740     0.00000000
     0.00000000     0.00000000     0.69159025
New lattice vectors in INITIAL alat:
     1.00066823     0.00000000     0.00000000
     0.00000000     1.02607740     0.00000000
     0.00000000     0.00000000     0.69159025
New lattice vectors in NEW alat (for information only):
     1.00000000     0.00000000     0.00000000
     0.00000000     1.02539220     0.00000000
     0.00000000     0.00000000     0.69112841
Discrepancy in bohr =     0.000000    0.000000    0.000000
     new conv_thr            =            1.0E-10 Ry

     new unit-cell volume =   1605.34157 a.u.^3 (   237.88708 Ang^3 )
     density =      2.33162 g/cm^3

CELL_PARAMETERS (alat= 13.12450057)
   1.000668234   0.000000000   0.000000000
   0.000000000   1.026077399   0.000000000
   0.000000000   0.000000000   0.691590247

ATOMIC_POSITIONS (crystal)
Ba               0.5000000000        0.5000000000        0.5000999558
Ba               0.0000000000        0.0000000000        0.9999000442
B                0.6103026536        0.2394344880        0.0000638042
B                0.3896973464        0.7605655120        0.0000638042
B                0.1103026536        0.2605655120        0.4999361958
B                0.8896973464        0.7394344880        0.4999361958
H                0.4363044938        0.2916051336        0.0002281604
H                0.5636955062        0.7083948664        0.0002281604
H                0.9363044938        0.2083948664        0.4997718396
H                0.0636955062        0.7916051336        0.4997718396
H                0.7206029728        0.3818299949       -0.0000072170
H                0.2793970272        0.6181700051       -0.0000072170
H                0.2206029728        0.1181700051        0.5000072170
H                0.7793970272        0.8818299949        0.5000072170
H                0.6389733436        0.1433607091        0.7833462181
H                0.3610266564        0.8566392909        0.7833462181
H                0.1389733436        0.3566392909        0.7166537819
H                0.8610266564        0.6433607091        0.7166537819
H                0.3608146788        0.8566880715        0.2166769494
H                0.6391853212        0.1433119285        0.2166769494
H                0.8608146788        0.6433119285        0.2833230506
H                0.1391853212        0.3566880715        0.2833230506



     Writing config-only to output data dir ./pwscf.save/ :
     XML data file
     NEW-OLD atomic charge density approx. for the potential

     total cpu time spent up to now is      278.6 secs

     Self-consistent Calculation

     iteration #  1     ecut=   100.00 Ry     beta= 0.70
     Davidson diagonalization with overlap
     ethr =  1.00E-06,  avg # of iterations =  5.0

     total cpu time spent up to now is      305.4 secs

     total energy              =    -156.44749620 Ry
     estimated scf accuracy    <       0.00370366 Ry

     iteration #  2     ecut=   100.00 Ry     beta= 0.70
     Davidson diagonalization with overlap
     ethr =  7.72E-06,  avg # of iterations =  2.0

     total cpu time spent up to now is      322.0 secs

     total energy              =    -156.44864744 Ry
     estimated scf accuracy    <       0.00105426 Ry

     iteration #  3     ecut=   100.00 Ry     beta= 0.70
     Davidson diagonalization with overlap
     ethr =  2.20E-06,  avg # of iterations =  2.0

     total cpu time spent up to now is      338.5 secs

     total energy              =    -156.44878264 Ry
     estimated scf accuracy    <       0.00001609 Ry

     iteration #  4     ecut=   100.00 Ry     beta= 0.70
     Davidson diagonalization with overlap
     ethr =  3.35E-08,  avg # of iterations =  3.0

     total cpu time spent up to now is      357.7 secs

     total energy              =    -156.44879075 Ry
     estimated scf accuracy    <       0.00001052 Ry

     iteration #  5     ecut=   100.00 Ry     beta= 0.70
     Davidson diagonalization with overlap
     ethr =  2.19E-08,  avg # of iterations =  2.0

     total cpu time spent up to now is      374.3 secs

     total energy              =    -156.44879127 Ry
     estimated scf accuracy    <       0.00000084 Ry

     iteration #  6     ecut=   100.00 Ry     beta= 0.70
     Davidson diagonalization with overlap
     ethr =  1.74E-09,  avg # of iterations =  2.6

     total cpu time spent up to now is      391.1 secs

     total energy              =    -156.44879162 Ry
     estimated scf accuracy    <       0.00000021 Ry

     iteration #  7     ecut=   100.00 Ry     beta= 0.70
     Davidson diagonalization with overlap
     ethr =  4.34E-10,  avg # of iterations =  2.0

     total cpu time spent up to now is      407.7 secs

     total energy              =    -156.44879165 Ry
     estimated scf accuracy    <          6.8E-09 Ry

     iteration #  8     ecut=   100.00 Ry     beta= 0.70
     Davidson diagonalization with overlap
     ethr =  1.41E-11,  avg # of iterations =  5.1

     total cpu time spent up to now is      430.9 secs

     total energy              =    -156.44879166 Ry
     estimated scf accuracy    <          1.7E-10 Ry

     iteration #  9     ecut=   100.00 Ry     beta= 0.70
     Davidson diagonalization with overlap
     ethr =  3.58E-13,  avg # of iterations =  5.8

     total cpu time spent up to now is      457.4 secs

     End of self-consistent calculation

          k = 0.0000 0.0000 0.0000 ( 27095 PWs)   bands (ev):

   -24.9536 -24.9490 -10.3036 -10.2535 -10.1353 -10.1141 -10.0767 -10.0388
    -6.3411  -5.5091  -5.0735  -4.9018  -2.0715  -1.2858  -1.2282  -0.8789
    -0.5581  -0.5502  -0.5485  -0.3887  -0.2549   0.0887   0.1257   0.1594

          k = 0.0000 0.0000 0.3615 ( 27081 PWs)   bands (ev):

   -24.9492 -24.9459 -10.2443 -10.2343 -10.2155 -10.2118 -10.1253 -10.1143
    -5.9681  -5.3429  -5.1726  -5.0550  -1.7664  -1.5358  -1.0798  -1.0311
    -0.9304  -0.8419  -0.5231  -0.2790  -0.0709  -0.0581  -0.0027   0.1365

          k = 0.0000 0.0000-0.7230 ( 27084 PWs)   bands (ev):

   -24.9438 -24.9438 -10.3761 -10.3760 -10.1536 -10.1535 -10.1374 -10.1374
    -5.3898  -5.3893  -5.2430  -5.2426  -1.5285  -1.5281  -1.5041  -1.5027
    -0.5890  -0.5879  -0.5359  -0.5347  -0.0567  -0.0564  -0.0251  -0.0245

          k = 0.0000 0.2436 0.0000 ( 27145 PWs)   bands (ev):

   -24.9529 -24.9497 -10.2846 -10.2358 -10.1631 -10.1342 -10.0710 -10.0442
    -6.1877  -5.4487  -5.2866  -4.9959  -1.7795  -1.4361  -1.3110  -0.6542
    -0.6358  -0.6139  -0.3520  -0.2665  -0.1814  -0.1777   0.0167   0.1002

          k = 0.0000 0.2436 0.3615 ( 27120 PWs)   bands (ev):

   -24.9487 -24.9464 -10.2650 -10.2356 -10.1974 -10.1965 -10.1280 -10.1262
    -5.8740  -5.3950  -5.2186  -5.0948  -1.5981  -1.5587  -1.3278  -0.8619
    -0.8243  -0.6415  -0.6299  -0.2376  -0.1341  -0.1222  -0.0150   0.0411

          k = 0.0000 0.2436-0.7230 ( 27078 PWs)   bands (ev):

   -24.9438 -24.9438 -10.3849 -10.3849 -10.1434 -10.1434 -10.1368 -10.1368
    -5.5426  -5.5425  -5.0866  -5.0865  -1.6064  -1.6058  -1.3827  -1.3820
    -0.5248  -0.5233  -0.5043  -0.5042  -0.1859  -0.1858  -0.0310  -0.0307

          k = 0.0000-0.4873 0.0000 ( 27130 PWs)   bands (ev):

   -24.9513 -24.9513 -10.2353 -10.2353 -10.1791 -10.1791 -10.0575 -10.0575
    -5.7920  -5.7920  -5.2091  -5.2091  -1.5373  -1.5373  -0.9106  -0.9106
    -0.7048  -0.7048  -0.2628  -0.2628  -0.1580  -0.1580  -0.0233  -0.0233

          k = 0.0000-0.4873 0.3615 ( 27118 PWs)   bands (ev):

   -24.9476 -24.9476 -10.2613 -10.2613 -10.1730 -10.1730 -10.1415 -10.1415
    -5.6356  -5.6356  -5.1766  -5.1766  -1.5377  -1.5377  -1.1447  -1.1447
    -0.6254  -0.6254  -0.3655  -0.3655  -0.2174  -0.2174  -0.0285  -0.0285

          k = 0.0000-0.4873-0.7230 ( 27052 PWs)   bands (ev):

   -24.9438 -24.9438 -10.3930 -10.3930 -10.1388 -10.1388 -10.1312 -10.1312
    -5.6271  -5.6271  -4.9987  -4.9987  -1.6788  -1.6788  -1.2024  -1.2024
    -0.5546  -0.5546  -0.4426  -0.4426  -0.3512  -0.3512   0.0021   0.0021

          k = 0.2498 0.0000 0.0000 ( 27118 PWs)   bands (ev):

   -24.9529 -24.9497 -10.2801 -10.2408 -10.1596 -10.1415 -10.0710 -10.0442
    -6.1944  -5.5694  -5.0883  -5.0139  -1.9058  -1.1855  -1.1401  -0.9917
    -0.5545  -0.4958  -0.4352  -0.3729  -0.2879  -0.2724   0.0685   0.1123

          k = 0.2498 0.0000 0.3615 ( 27150 PWs)   bands (ev):

   -24.9487 -24.9464 -10.2576 -10.2439 -10.2166 -10.1802 -10.1382 -10.1177
    -5.8479  -5.3570  -5.1880  -5.1538  -1.7327  -1.5081  -1.3506  -0.9203
    -0.8612  -0.6678  -0.4436  -0.3185  -0.2225  -0.0869   0.0793   0.0933

          k = 0.2498 0.0000-0.7230 ( 27084 PWs)   bands (ev):

   -24.9438 -24.9438 -10.3873 -10.3872 -10.1471 -10.1470 -10.1343 -10.1342
    -5.3846  -5.3842  -5.2282  -5.2280  -1.9250  -1.9246  -1.1592  -1.1588
    -0.5763  -0.5760  -0.3359  -0.3344  -0.2046  -0.2044   0.0122   0.0125

          k = 0.2498 0.2436 0.0000 ( 27135 PWs)   bands (ev):

   -24.9524 -24.9501 -10.2956 -10.2262 -10.1876 -10.1176 -10.0669 -10.0480
    -6.0735  -5.5382  -5.2598  -5.0639  -1.6657  -1.3867  -1.1536  -0.7422
    -0.6757  -0.6385  -0.3802  -0.2588  -0.2279  -0.1777  -0.0884   0.0342

          k = 0.2498 0.2436 0.3615 ( 27112 PWs)   bands (ev):

   -24.9484 -24.9467 -10.2570 -10.2386 -10.2340 -10.1711 -10.1404 -10.1156
    -5.7679  -5.3606  -5.2839  -5.1635  -1.6925  -1.4576  -1.4018  -0.9156
    -0.7367  -0.6007  -0.4971  -0.3129  -0.2226  -0.1193   0.0043   0.0774

          k = 0.2498 0.2436-0.7230 ( 27094 PWs)   bands (ev):

   -24.9438 -24.9438 -10.3921 -10.3778 -10.1570 -10.1402 -10.1356 -10.1349
    -5.5359  -5.4289  -5.1808  -5.0725  -1.9013  -1.8470  -1.2053  -1.1593
    -0.6113  -0.6046  -0.3548  -0.3274  -0.1600  -0.1566  -0.0377   0.0072

          k = 0.2498-0.4873 0.0000 ( 27082 PWs)   bands (ev):

   -24.9513 -24.9513 -10.2789 -10.2789 -10.1372 -10.1372 -10.0573 -10.0573
    -5.7649  -5.7649  -5.2351  -5.2351  -1.4398  -1.4398  -0.9253  -0.9253
    -0.7297  -0.7297  -0.3125  -0.3125  -0.1345  -0.1345  -0.0902  -0.0902

          k = 0.2498-0.4873 0.3615 ( 27106 PWs)   bands (ev):

   -24.9475 -24.9475 -10.2562 -10.2562 -10.2009 -10.2009 -10.1225 -10.1225
    -5.5650  -5.5650  -5.2371  -5.2371  -1.6022  -1.6022  -1.1221  -1.1221
    -0.6106  -0.6106  -0.3349  -0.3349  -0.2194  -0.2194  -0.0166  -0.0166

          k = 0.2498-0.4873-0.7230 ( 27080 PWs)   bands (ev):

   -24.9438 -24.9438 -10.3832 -10.3832 -10.1477 -10.1477 -10.1381 -10.1381
    -5.5539  -5.5539  -5.0516  -5.0516  -1.8112  -1.8112  -1.2498  -1.2498
    -0.5184  -0.5184  -0.4033  -0.4033  -0.1854  -0.1854  -0.0036  -0.0036

          k =-0.4997 0.0000 0.0000 ( 27118 PWs)   bands (ev):

   -24.9513 -24.9513 -10.2263 -10.2263 -10.1924 -10.1924 -10.0575 -10.0575
    -5.8483  -5.8483  -5.1027  -5.1027  -1.5361  -1.5361  -0.8338  -0.8338
    -0.5116  -0.5116  -0.4829  -0.4829  -0.3864  -0.3864  -0.0152  -0.0152

          k =-0.4997 0.0000 0.3615 ( 27146 PWs)   bands (ev):

   -24.9475 -24.9475 -10.2620 -10.2620 -10.1846 -10.1846 -10.1349 -10.1349
    -5.5628  -5.5628  -5.2144  -5.2144  -1.6475  -1.6475  -1.1658  -1.1658
    -0.6209  -0.6209  -0.4528  -0.4528  -0.1224  -0.1224   0.0626   0.0626

          k =-0.4997 0.0000-0.7230 ( 27108 PWs)   bands (ev):

   -24.9438 -24.9438 -10.3977 -10.3977 -10.1433 -10.1433 -10.1291 -10.1291
    -5.3835  -5.3835  -5.2082  -5.2082  -2.1088  -2.1088  -0.9458  -0.9458
    -0.5924  -0.5924  -0.4245  -0.4245  -0.0555  -0.0555  -0.0051  -0.0051

          k =-0.4997 0.2436 0.0000 ( 27144 PWs)   bands (ev):

   -24.9513 -24.9513 -10.2782 -10.2782 -10.1400 -10.1400 -10.0573 -10.0573
    -5.7989  -5.7989  -5.1762  -5.1762  -1.4450  -1.4450  -0.8402  -0.8402
    -0.6709  -0.6709  -0.5090  -0.5090  -0.2109  -0.2109  -0.0389  -0.0389

          k =-0.4997 0.2436 0.3615 ( 27114 PWs)   bands (ev):

   -24.9475 -24.9475 -10.2567 -10.2567 -10.2042 -10.2042 -10.1215 -10.1215
    -5.5180  -5.5180  -5.2666  -5.2666  -1.6490  -1.6490  -1.1539  -1.1539
    -0.5842  -0.5842  -0.4064  -0.4064  -0.1314  -0.1314   0.0042   0.0042

          k =-0.4997 0.2436-0.7230 ( 27092 PWs)   bands (ev):

   -24.9438 -24.9438 -10.3857 -10.3857 -10.1492 -10.1492 -10.1376 -10.1376
    -5.4267  -5.4267  -5.1616  -5.1616  -2.0302  -2.0302  -1.1135  -1.1135
    -0.5491  -0.5491  -0.3766  -0.3766  -0.0843  -0.0843   0.0314   0.0314

          k =-0.4997-0.4873 0.0000 ( 27116 PWs)   bands (ev):

   -24.9513 -24.9513 -10.3051 -10.3051 -10.1126 -10.1126 -10.0571 -10.0571
    -5.7360  -5.7360  -5.2625  -5.2625  -1.3100  -1.3100  -0.9778  -0.9778
    -0.7527  -0.7527  -0.3218  -0.3218  -0.1924  -0.1924  -0.1127  -0.1127

          k =-0.4997-0.4873 0.3615 ( 27072 PWs)   bands (ev):

   -24.9475 -24.9475 -10.2483 -10.2483 -10.2224 -10.2224 -10.1127 -10.1127
    -5.4346  -5.4346  -5.3572  -5.3572  -1.6305  -1.6305  -1.2044  -1.2044
    -0.4504  -0.4504  -0.3204  -0.3204  -0.1881  -0.1881  -0.1018  -0.1018

          k =-0.4997-0.4873-0.7230 ( 27088 PWs)   bands (ev):

   -24.9438 -24.9438 -10.3722 -10.3722 -10.1609 -10.1609 -10.1418 -10.1418
    -5.4585  -5.4585  -5.1265  -5.1265  -1.9038  -1.9038  -1.3556  -1.3556
    -0.3662  -0.3662  -0.3202  -0.3202  -0.1747  -0.1747   0.0043   0.0043

     highest occupied level (ev):     0.1594

!    total energy              =    -156.44879166 Ry
     estimated scf accuracy    <          8.8E-11 Ry

     The total energy is the sum of the following terms:
     one-electron contribution =     -28.66037287 Ry
     hartree contribution      =      27.20198496 Ry
     xc contribution           =     -48.67290259 Ry
     ewald contribution        =    -106.31750116 Ry

     convergence has been achieved in   9 iterations

     Forces acting on atoms (cartesian axes, Ry/au):

     atom    1 type  2   force =     0.00000000    0.00000000    0.00000573
     atom    2 type  2   force =     0.00000000    0.00000000   -0.00000573
     atom    3 type  1   force =     0.00084479    0.00345084   -0.00001066
     atom    4 type  1   force =    -0.00084479   -0.00345084   -0.00001066
     atom    5 type  1   force =     0.00084479   -0.00345084    0.00001066
     atom    6 type  1   force =    -0.00084479    0.00345084    0.00001066
     atom    7 type  3   force =     0.01988226   -0.00471410   -0.00001971
     atom    8 type  3   force =    -0.01988226    0.00471410   -0.00001971
     atom    9 type  3   force =     0.01988226    0.00471410    0.00001971
     atom   10 type  3   force =    -0.01988226   -0.00471410    0.00001971
     atom   11 type  3   force =    -0.01317494   -0.01526602    0.00000682
     atom   12 type  3   force =     0.01317494    0.01526602    0.00000682
     atom   13 type  3   force =    -0.01317494    0.01526602   -0.00000682
     atom   14 type  3   force =     0.01317494   -0.01526602   -0.00000682
     atom   15 type  3   force =    -0.00210436    0.01168936    0.01716121
     atom   16 type  3   force =     0.00210436   -0.01168936    0.01716121
     atom   17 type  3   force =    -0.00210436   -0.01168936   -0.01716121
     atom   18 type  3   force =     0.00210436    0.01168936   -0.01716121
     atom   19 type  3   force =     0.00215954   -0.01170740   -0.01716858
     atom   20 type  3   force =    -0.00215954    0.01170740   -0.01716858
     atom   21 type  3   force =     0.00215954    0.01170740    0.01716858
     atom   22 type  3   force =    -0.00215954   -0.01170740    0.01716858

     Total force =     0.082676     Total SCF correction =     0.000004


     Computing stress (Cartesian axis) and pressure

          total   stress  (Ry/bohr**3)                   (kbar)     P=      -47.28
  -0.00029989   0.00000000   0.00000000          -44.12        0.00        0.00
   0.00000000  -0.00030521   0.00000000            0.00      -44.90        0.00
   0.00000000   0.00000000  -0.00035910            0.00        0.00      -52.83

     Volume is kept fixed: isostatic pressure set to zero
     Energy error            =      1.3E-02 Ry
     Gradient error          =      2.0E-02 Ry/Bohr
     Cell gradient error     =      5.5E+00 kbar

     number of scf cycles    =   2
     number of bfgs steps    =   1

     enthalpy           old  =    -156.4360634821 Ry
     enthalpy           new  =    -156.4487916559 Ry

     CASE: enthalpy          _new < enthalpy          _old

     new trust radius        =       0.0467995967 bohr
ibrav =      8
 celldm(1) =     13.14912708
 celldm(2) =      1.02508732
 celldm(3) =      0.68883598
Input lattice vectors:
     1.00187638     0.00000000     0.00000000
     0.00000000     1.02701077     0.00000000
     0.00000000     0.00000000     0.69012850
New lattice vectors in INITIAL alat:
     1.00187638     0.00000000     0.00000000
     0.00000000     1.02701077     0.00000000
     0.00000000     0.00000000     0.69012850
New lattice vectors in NEW alat (for information only):
     1.00000000     0.00000000     0.00000000
     0.00000000     1.02508732     0.00000000
     0.00000000     0.00000000     0.68883598
Discrepancy in bohr =     0.000000    0.000000    0.000000
     new conv_thr            =            1.0E-10 Ry

     new unit-cell volume =   1605.34157 a.u.^3 (   237.88708 Ang^3 )
     density =      2.33162 g/cm^3

CELL_PARAMETERS (alat= 13.12450057)
   1.001876377   0.000000000   0.000000000
   0.000000000   1.027010771   0.000000000
   0.000000000   0.000000000   0.690128496

ATOMIC_POSITIONS (crystal)
Ba               0.5000000000        0.5000000000        0.5001013682
Ba               0.0000000000        0.0000000000        0.9998986318
B                0.6104467883        0.2400088011        0.0000611759
B                0.3895532117        0.7599911989        0.0000611759
B                0.1104467883        0.2599911989        0.4999388241
B                0.8895532117        0.7400088011        0.4999388241
H                0.4397040373        0.2908190720        0.0002233034
H                0.5602959627        0.7091809280        0.0002233034
H                0.9397040373        0.2091809280        0.4997766966
H                0.0602959627        0.7908190720        0.4997766966
H                0.7183503053        0.3792848082       -0.0000055360
H                0.2816496947        0.6207151918       -0.0000055360
H                0.2183503053        0.1207151918        0.5000055360
H                0.7816496947        0.8792848082        0.5000055360
H                0.6386132554        0.1453092348        0.7875770114
H                0.3613867446        0.8546907652        0.7875770114
H                0.1386132554        0.3546907652        0.7124229886
H                0.8613867446        0.6453092348        0.7124229886
H                0.3611841961        0.8547365425        0.2124443467
H                0.6388158039        0.1452634575        0.2124443467
H                0.8611841961        0.6452634575        0.2875556533
H                0.1388158039        0.3547365425        0.2875556533



     Writing config-only to output data dir ./pwscf.save/ :
     XML data file
     NEW-OLD atomic charge density approx. for the potential

     total cpu time spent up to now is      492.3 secs

     Self-consistent Calculation

     iteration #  1     ecut=   100.00 Ry     beta= 0.70
     Davidson diagonalization with overlap
     ethr =  1.00E-06,  avg # of iterations =  6.0

     total cpu time spent up to now is      521.4 secs

     total energy              =    -156.45514870 Ry
     estimated scf accuracy    <       0.00894508 Ry

     iteration #  2     ecut=   100.00 Ry     beta= 0.70
     Davidson diagonalization with overlap
     ethr =  1.86E-05,  avg # of iterations =  2.0

     total cpu time spent up to now is      537.9 secs

     total energy              =    -156.45791363 Ry
     estimated scf accuracy    <       0.00247805 Ry

     iteration #  3     ecut=   100.00 Ry     beta= 0.70
     Davidson diagonalization with overlap
     ethr =  5.16E-06,  avg # of iterations =  2.0

     total cpu time spent up to now is      554.5 secs

     total energy              =    -156.45824086 Ry
     estimated scf accuracy    <       0.00003471 Ry

     iteration #  4     ecut=   100.00 Ry     beta= 0.70
     Davidson diagonalization with overlap
     ethr =  7.23E-08,  avg # of iterations =  3.0

     total cpu time spent up to now is      573.9 secs

     total energy              =    -156.45825780 Ry
     estimated scf accuracy    <       0.00001996 Ry

     iteration #  5     ecut=   100.00 Ry     beta= 0.70
     Davidson diagonalization with overlap
     ethr =  4.16E-08,  avg # of iterations =  2.0

     total cpu time spent up to now is      590.6 secs

     total energy              =    -156.45825917 Ry
     estimated scf accuracy    <       0.00000128 Ry

     iteration #  6     ecut=   100.00 Ry     beta= 0.70
     Davidson diagonalization with overlap
     ethr =  2.67E-09,  avg # of iterations =  2.8

     total cpu time spent up to now is      607.7 secs

     total energy              =    -156.45825972 Ry
     estimated scf accuracy    <       0.00000039 Ry

     iteration #  7     ecut=   100.00 Ry     beta= 0.70
     Davidson diagonalization with overlap
     ethr =  8.11E-10,  avg # of iterations =  2.0

     total cpu time spent up to now is      624.3 secs

     total energy              =    -156.45825978 Ry
     estimated scf accuracy    <          8.3E-09 Ry

     iteration #  8     ecut=   100.00 Ry     beta= 0.70
     Davidson diagonalization with overlap
     ethr =  1.74E-11,  avg # of iterations =  5.8

     total cpu time spent up to now is      650.2 secs

     total energy              =    -156.45825980 Ry
     estimated scf accuracy    <          2.8E-10 Ry

     iteration #  9     ecut=   100.00 Ry     beta= 0.70
     Davidson diagonalization with overlap
     ethr =  5.93E-13,  avg # of iterations =  5.6

     total cpu time spent up to now is      674.3 secs

     total energy              =    -156.45825980 Ry
     estimated scf accuracy    <          2.9E-10 Ry

     iteration # 10     ecut=   100.00 Ry     beta= 0.70
     Davidson diagonalization with overlap
     ethr =  5.93E-13,  avg # of iterations =  1.0

     total cpu time spent up to now is      687.4 secs

     total energy              =    -156.45825980 Ry
     estimated scf accuracy    <          4.4E-10 Ry

     iteration # 11     ecut=   100.00 Ry     beta= 0.70
     Davidson diagonalization with overlap
     ethr =  5.93E-13,  avg # of iterations =  4.8

     total cpu time spent up to now is      708.3 secs

     total energy              =    -156.45825980 Ry
     estimated scf accuracy    <          2.6E-10 Ry

     iteration # 12     ecut=   100.00 Ry     beta= 0.70
     Davidson diagonalization with overlap
     ethr =  5.41E-13,  avg # of iterations =  1.0

     total cpu time spent up to now is      721.4 secs

     End of self-consistent calculation

          k = 0.0000 0.0000 0.0000 ( 27095 PWs)   bands (ev):

   -24.9938 -24.9892 -10.3436 -10.2925 -10.1732 -10.1520 -10.1133 -10.0761
    -6.4259  -5.6383  -5.1982  -5.0345  -2.0757  -1.3109  -1.2795  -0.9544
    -0.6054  -0.5952  -0.5887  -0.4441  -0.3018   0.0040   0.0342   0.0624

          k = 0.0000 0.0000 0.3623 ( 27081 PWs)   bands (ev):

   -24.9893 -24.9861 -10.2830 -10.2745 -10.2562 -10.2500 -10.1628 -10.1520
    -6.0572  -5.4675  -5.3019  -5.1905  -1.7644  -1.5476  -1.0954  -1.0846
    -0.9752  -0.8862  -0.5827  -0.3500  -0.1519  -0.1425  -0.0778   0.0468

          k = 0.0000 0.0000-0.7245 ( 27084 PWs)   bands (ev):

   -24.9839 -24.9839 -10.4192 -10.4191 -10.1904 -10.1904 -10.1750 -10.1750
    -5.4976  -5.4972  -5.3787  -5.3783  -1.5304  -1.5300  -1.5073  -1.5060
    -0.6553  -0.6544  -0.6022  -0.6009  -0.1326  -0.1325  -0.1114  -0.1109

          k = 0.0000 0.2434 0.0000 ( 27145 PWs)   bands (ev):

   -24.9931 -24.9899 -10.3245 -10.2752 -10.2008 -10.1720 -10.1078 -10.0815
    -6.2760  -5.5781  -5.4003  -5.1277  -1.7962  -1.4611  -1.3519  -0.6951
    -0.6922  -0.6855  -0.4113  -0.3199  -0.2590  -0.2342  -0.0669   0.0104

          k = 0.0000 0.2434 0.3623 ( 27120 PWs)   bands (ev):

   -24.9888 -24.9865 -10.3042 -10.2757 -10.2370 -10.2349 -10.1658 -10.1637
    -5.9676  -5.5165  -5.3437  -5.2279  -1.6026  -1.5694  -1.3522  -0.8981
    -0.8709  -0.7089  -0.6814  -0.3093  -0.2139  -0.2032  -0.0926  -0.0436

          k = 0.0000 0.2434-0.7245 ( 27078 PWs)   bands (ev):

   -24.9839 -24.9839 -10.4278 -10.4278 -10.1803 -10.1803 -10.1744 -10.1744
    -5.6616  -5.6615  -5.2103  -5.2103  -1.6103  -1.6097  -1.3870  -1.3864
    -0.5905  -0.5896  -0.5727  -0.5721  -0.2587  -0.2586  -0.1177  -0.1174

          k = 0.0000-0.4868 0.0000 ( 27130 PWs)   bands (ev):

   -24.9915 -24.9915 -10.2754 -10.2754 -10.2164 -10.2164 -10.0945 -10.0945
    -5.8913  -5.8913  -5.3382  -5.3382  -1.5599  -1.5599  -0.9650  -0.9650
    -0.7484  -0.7484  -0.3474  -0.3474  -0.2130  -0.2130  -0.1025  -0.1025

          k = 0.0000-0.4868 0.3623 ( 27118 PWs)   bands (ev):

   -24.9877 -24.9877 -10.3009 -10.3009 -10.2125 -10.2125 -10.1787 -10.1787
    -5.7417  -5.7417  -5.3049  -5.3049  -1.5474  -1.5474  -1.1751  -1.1751
    -0.6828  -0.6828  -0.4260  -0.4260  -0.3012  -0.3012  -0.1085  -0.1085

          k = 0.0000-0.4868-0.7245 ( 27052 PWs)   bands (ev):

   -24.9839 -24.9839 -10.4358 -10.4358 -10.1763 -10.1763 -10.1684 -10.1684
    -5.7476  -5.7476  -5.1201  -5.1201  -1.6824  -1.6824  -1.2073  -1.2073
    -0.6275  -0.6275  -0.5031  -0.5031  -0.4246  -0.4246  -0.0867  -0.0867

          k = 0.2495 0.0000 0.0000 ( 27118 PWs)   bands (ev):

   -24.9931 -24.9899 -10.3201 -10.2798 -10.1976 -10.1792 -10.1078 -10.0815
    -6.2835  -5.6909  -5.2145  -5.1434  -1.9144  -1.2170  -1.1826  -1.0507
    -0.5910  -0.5539  -0.4831  -0.4409  -0.3453  -0.3407  -0.0218   0.0154

          k = 0.2495 0.0000 0.3623 ( 27150 PWs)   bands (ev):

   -24.9888 -24.9865 -10.2971 -10.2837 -10.2557 -10.2194 -10.1754 -10.1556
    -5.9414  -5.4774  -5.3177  -5.2860  -1.7268  -1.5303  -1.3579  -0.9666
    -0.9196  -0.7180  -0.5115  -0.3896  -0.2922  -0.1618  -0.0108   0.0107

          k = 0.2495 0.0000-0.7245 ( 27084 PWs)   bands (ev):

   -24.9839 -24.9839 -10.4302 -10.4302 -10.1838 -10.1837 -10.1721 -10.1720
    -5.5066  -5.5062  -5.3508  -5.3505  -1.9167  -1.9163  -1.1759  -1.1755
    -0.6458  -0.6455  -0.4021  -0.4007  -0.2786  -0.2784  -0.0724  -0.0721

          k = 0.2495 0.2434 0.0000 ( 27135 PWs)   bands (ev):

   -24.9927 -24.9904 -10.3350 -10.2664 -10.2247 -10.1556 -10.1038 -10.0852
    -6.1667  -5.6597  -5.3777  -5.1907  -1.6871  -1.4183  -1.1970  -0.7985
    -0.7172  -0.6838  -0.4537  -0.3128  -0.3055  -0.2335  -0.1750  -0.0501

          k = 0.2495 0.2434 0.3623 ( 27112 PWs)   bands (ev):

   -24.9885 -24.9869 -10.2968 -10.2770 -10.2738 -10.2108 -10.1776 -10.1532
    -5.8657  -5.4832  -5.4051  -5.2940  -1.6923  -1.4670  -1.4267  -0.9611
    -0.7923  -0.6547  -0.5625  -0.3798  -0.2990  -0.1980  -0.0764  -0.0055

          k = 0.2495 0.2434-0.7245 ( 27094 PWs)   bands (ev):

   -24.9839 -24.9839 -10.4351 -10.4207 -10.1938 -10.1776 -10.1733 -10.1719
    -5.6589  -5.5500  -5.3041  -5.1934  -1.8941  -1.8391  -1.2235  -1.1752
    -0.6790  -0.6726  -0.4154  -0.3950  -0.2428  -0.2329  -0.1142  -0.0840

          k = 0.2495-0.4868 0.0000 ( 27082 PWs)   bands (ev):

   -24.9915 -24.9915 -10.3181 -10.3181 -10.1752 -10.1752 -10.0943 -10.0943
    -5.8702  -5.8702  -5.3566  -5.3566  -1.4714  -1.4714  -0.9784  -0.9784
    -0.7715  -0.7715  -0.3852  -0.3852  -0.1914  -0.1914  -0.1726  -0.1726

          k = 0.2495-0.4868 0.3623 ( 27106 PWs)   bands (ev):

   -24.9877 -24.9877 -10.2954 -10.2954 -10.2402 -10.2402 -10.1602 -10.1602
    -5.6741  -5.6741  -5.3623  -5.3623  -1.6080  -1.6080  -1.1601  -1.1601
    -0.6651  -0.6651  -0.4024  -0.4024  -0.2975  -0.2975  -0.0957  -0.0957

          k = 0.2495-0.4868-0.7245 ( 27080 PWs)   bands (ev):

   -24.9838 -24.9838 -10.4261 -10.4261 -10.1847 -10.1847 -10.1756 -10.1756
    -5.6763  -5.6763  -5.1730  -5.1730  -1.8048  -1.8048  -1.2676  -1.2676
    -0.5866  -0.5866  -0.4673  -0.4673  -0.2634  -0.2634  -0.0889  -0.0889

          k =-0.4991 0.0000 0.0000 ( 27118 PWs)   bands (ev):

   -24.9915 -24.9915 -10.2668 -10.2668 -10.2292 -10.2292 -10.0945 -10.0945
    -5.9505  -5.9505  -5.2315  -5.2315  -1.5556  -1.5556  -0.8819  -0.8819
    -0.5583  -0.5583  -0.5504  -0.5504  -0.4449  -0.4449  -0.1074  -0.1074

          k =-0.4991 0.0000 0.3623 ( 27146 PWs)   bands (ev):

   -24.9877 -24.9877 -10.3017 -10.3017 -10.2234 -10.2234 -10.1725 -10.1725
    -5.6681  -5.6681  -5.3457  -5.3457  -1.6461  -1.6461  -1.2015  -1.2015
    -0.6837  -0.6837  -0.5183  -0.5183  -0.1931  -0.1931  -0.0251  -0.0251

          k =-0.4991 0.0000-0.7245 ( 27108 PWs)   bands (ev):

   -24.9838 -24.9838 -10.4405 -10.4405 -10.1801 -10.1801 -10.1668 -10.1668
    -5.5156  -5.5156  -5.3218  -5.3218  -2.0959  -2.0959  -0.9678  -0.9678
    -0.6615  -0.6615  -0.4925  -0.4925  -0.1264  -0.1264  -0.0943  -0.0943

          k =-0.4991 0.2434 0.0000 ( 27144 PWs)   bands (ev):

   -24.9915 -24.9915 -10.3173 -10.3173 -10.1780 -10.1780 -10.0943 -10.0943
    -5.9051  -5.9051  -5.2979  -5.2979  -1.4758  -1.4758  -0.8887  -0.8887
    -0.7123  -0.7123  -0.5786  -0.5786  -0.2676  -0.2676  -0.1273  -0.1273

          k =-0.4991 0.2434 0.3623 ( 27114 PWs)   bands (ev):

   -24.9877 -24.9877 -10.2960 -10.2960 -10.2434 -10.2434 -10.1592 -10.1592
    -5.6265  -5.6265  -5.3935  -5.3935  -1.6505  -1.6505  -1.1909  -1.1909
    -0.6480  -0.6480  -0.4709  -0.4709  -0.2045  -0.2045  -0.0784  -0.0784

          k =-0.4991 0.2434-0.7245 ( 27092 PWs)   bands (ev):

   -24.9838 -24.9838 -10.4287 -10.4287 -10.1859 -10.1859 -10.1753 -10.1753
    -5.5541  -5.5541  -5.2799  -5.2799  -2.0180  -2.0180  -1.1354  -1.1354
    -0.6175  -0.6175  -0.4453  -0.4453  -0.1621  -0.1621  -0.0520  -0.0520

          k =-0.4991-0.4868 0.0000 ( 27116 PWs)   bands (ev):

   -24.9915 -24.9915 -10.3441 -10.3441 -10.1507 -10.1507 -10.0942 -10.0942
    -5.8484  -5.8484  -5.3752  -5.3752  -1.3591  -1.3591  -1.0162  -1.0162
    -0.7929  -0.7929  -0.3974  -0.3974  -0.2678  -0.2678  -0.1714  -0.1714

          k =-0.4991-0.4868 0.3623 ( 27072 PWs)   bands (ev):

   -24.9877 -24.9877 -10.2863 -10.2863 -10.2628 -10.2628 -10.1504 -10.1504
    -5.5496  -5.5496  -5.4764  -5.4764  -1.6340  -1.6340  -1.2429  -1.2429
    -0.5099  -0.5099  -0.3987  -0.3987  -0.2644  -0.2644  -0.1694  -0.1694

          k =-0.4991-0.4868-0.7245 ( 27088 PWs)   bands (ev):

   -24.9838 -24.9838 -10.4154 -10.4154 -10.1977 -10.1977 -10.1791 -10.1791
    -5.5836  -5.5836  -5.2470  -5.2470  -1.8917  -1.8917  -1.3755  -1.3755
    -0.4354  -0.4354  -0.3991  -0.3991  -0.2516  -0.2516  -0.0721  -0.0721

     highest occupied level (ev):     0.0624

!    total energy              =    -156.45825980 Ry
     estimated scf accuracy    <          8.6E-11 Ry

     The total energy is the sum of the following terms:
     one-electron contribution =     -30.07203494 Ry
     hartree contribution      =      27.91253714 Ry
     xc contribution           =     -48.84506351 Ry
     ewald contribution        =    -105.45369848 Ry

     convergence has been achieved in  12 iterations

     Forces acting on atoms (cartesian axes, Ry/au):

     atom    1 type  2   force =     0.00000000    0.00000000    0.00000363
     atom    2 type  2   force =     0.00000000    0.00000000   -0.00000363
     atom    3 type  1   force =     0.00072964    0.00262591   -0.00000742
     atom    4 type  1   force =    -0.00072964   -0.00262591   -0.00000742
     atom    5 type  1   force =     0.00072964   -0.00262591    0.00000742
     atom    6 type  1   force =    -0.00072964    0.00262591    0.00000742
     atom    7 type  3   force =     0.00482486   -0.00021811   -0.00001080
     atom    8 type  3   force =    -0.00482486    0.00021811   -0.00001080
     atom    9 type  3   force =     0.00482486    0.00021811    0.00001080
     atom   10 type  3   force =    -0.00482486   -0.00021811    0.00001080
     atom   11 type  3   force =    -0.00273956   -0.00137924    0.00000114
     atom   12 type  3   force =     0.00273956    0.00137924    0.00000114
     atom   13 type  3   force =    -0.00273956    0.00137924   -0.00000114
     atom   14 type  3   force =     0.00273956   -0.00137924   -0.00000114
     atom   15 type  3   force =     0.00039199    0.00309064    0.00302813
     atom   16 type  3   force =    -0.00039199   -0.00309064    0.00302813
     atom   17 type  3   force =     0.00039199   -0.00309064   -0.00302813
     atom   18 type  3   force =    -0.00039199    0.00309064   -0.00302813
     atom   19 type  3   force =    -0.00036050   -0.00310081   -0.00303970
     atom   20 type  3   force =     0.00036050    0.00310081   -0.00303970
     atom   21 type  3   force =    -0.00036050    0.00310081    0.00303970
     atom   22 type  3   force =     0.00036050   -0.00310081    0.00303970

     Total force =     0.017666     Total SCF correction =     0.000003


     Computing stress (Cartesian axis) and pressure

          total   stress  (Ry/bohr**3)                   (kbar)     P=      -28.72
  -0.00018026   0.00000000   0.00000000          -26.52        0.00        0.00
   0.00000000  -0.00018336   0.00000000            0.00      -26.97        0.00
   0.00000000   0.00000000  -0.00022210            0.00        0.00      -32.67

     Volume is kept fixed: isostatic pressure set to zero
     Energy error            =      9.5E-03 Ry
     Gradient error          =      4.8E-03 Ry/Bohr
     Cell gradient error     =      4.0E+00 kbar

     number of scf cycles    =   3
     number of bfgs steps    =   2

     enthalpy           old  =    -156.4487916559 Ry
     enthalpy           new  =    -156.4582597963 Ry

     CASE: enthalpy          _new < enthalpy          _old

     new trust radius        =       0.0128948038 bohr
ibrav =      8
 celldm(1) =     13.15769202
 celldm(2) =      1.02494306
 celldm(3) =      0.68758844
Input lattice vectors:
     1.00252897     0.00000000     0.00000000
     0.00000000     1.02753511     0.00000000
     0.00000000     0.00000000     0.68932733
New lattice vectors in INITIAL alat:
     1.00252897     0.00000000     0.00000000
     0.00000000     1.02753511     0.00000000
     0.00000000     0.00000000     0.68932733
New lattice vectors in NEW alat (for information only):
     1.00000000     0.00000000     0.00000000
     0.00000000     1.02494306     0.00000000
     0.00000000     0.00000000     0.68758844
Discrepancy in bohr =     0.000000    0.000000    0.000000
     new conv_thr            =            1.0E-10 Ry

     new unit-cell volume =   1605.34157 a.u.^3 (   237.88708 Ang^3 )
     density =      2.33162 g/cm^3

CELL_PARAMETERS (alat= 13.12450057)
   1.002528969   0.000000000   0.000000000
   0.000000000   1.027535107   0.000000000
   0.000000000   0.000000000   0.689327327

ATOMIC_POSITIONS (crystal)
Ba               0.5000000000        0.5000000000        0.5001020781
Ba               0.0000000000        0.0000000000        0.9998979219
B                0.6105379505        0.2403390319        0.0000597589
B                0.3894620495        0.7596609681        0.0000597589
B                0.1105379505        0.2596609681        0.4999402411
B                0.8894620495        0.7403390319        0.4999402411
H                0.4406744348        0.2906810512        0.0002210919
H                0.5593255652        0.7093189488        0.0002210919
H                0.9406744348        0.2093189488        0.4997789081
H                0.0593255652        0.7906810512        0.4997789081
H                0.7177512432        0.3787754089       -0.0000051275
H                0.2822487568        0.6212245911       -0.0000051275
H                0.2177512432        0.1212245911        0.5000051275
H                0.7822487568        0.8787754089        0.5000051275
H                0.6385968076        0.1458891262        0.7886267611
H                0.3614031924        0.8541108738        0.7886267611
H                0.1385968076        0.3541108738        0.7113732389
H                0.8614031924        0.6458891262        0.7113732389
H                0.3612050673        0.8541552546        0.2113927396
H                0.6387949327        0.1458447454        0.2113927396
H                0.8612050673        0.6458447454        0.2886072604
H                0.1387949327        0.3541552546        0.2886072604



     Writing config-only to output data dir ./pwscf.save/ :
     XML data file
     NEW-OLD atomic charge density approx. for the potential

     total cpu time spent up to now is      756.2 secs

     Self-consistent Calculation

     iteration #  1     ecut=   100.00 Ry     beta= 0.70
     Davidson diagonalization with overlap
     ethr =  1.00E-06,  avg # of iterations =  4.0

     total cpu time spent up to now is      779.3 secs

     total energy              =    -156.45854754 Ry
     estimated scf accuracy    <       0.00059331 Ry

     iteration #  2     ecut=   100.00 Ry     beta= 0.70
     Davidson diagonalization with overlap
     ethr =  1.24E-06,  avg # of iterations =  2.0

     total cpu time spent up to now is      795.9 secs

     total energy              =    -156.45872220 Ry
     estimated scf accuracy    <       0.00014050 Ry

     iteration #  3     ecut=   100.00 Ry     beta= 0.70
     Davidson diagonalization with overlap
     ethr =  2.93E-07,  avg # of iterations =  2.0

     total cpu time spent up to now is      812.5 secs

     total energy              =    -156.45874141 Ry
     estimated scf accuracy    <       0.00000186 Ry

     iteration #  4     ecut=   100.00 Ry     beta= 0.70
     Davidson diagonalization with overlap
     ethr =  3.87E-09,  avg # of iterations =  3.0

     total cpu time spent up to now is      832.1 secs

     total energy              =    -156.45874238 Ry
     estimated scf accuracy    <       0.00000105 Ry

     iteration #  5     ecut=   100.00 Ry     beta= 0.70
     Davidson diagonalization with overlap
     ethr =  2.18E-09,  avg # of iterations =  2.0

     total cpu time spent up to now is      848.6 secs

     total energy              =    -156.45874250 Ry
     estimated scf accuracy    <       0.00000004 Ry

     iteration #  6     ecut=   100.00 Ry     beta= 0.70
     Davidson diagonalization with overlap
     ethr =  7.59E-11,  avg # of iterations =  4.9

     total cpu time spent up to now is      869.2 secs

     total energy              =    -156.45874252 Ry
     estimated scf accuracy    <       0.00000002 Ry

     iteration #  7     ecut=   100.00 Ry     beta= 0.70
     Davidson diagonalization with overlap
     ethr =  3.55E-11,  avg # of iterations =  3.0

     total cpu time spent up to now is      886.3 secs

     total energy              =    -156.45874253 Ry
     estimated scf accuracy    <          2.4E-10 Ry

     iteration #  8     ecut=   100.00 Ry     beta= 0.70
     Davidson diagonalization with overlap
     ethr =  4.92E-13,  avg # of iterations =  7.2

     total cpu time spent up to now is      918.7 secs

     End of self-consistent calculation

          k = 0.0000 0.0000 0.0000 ( 27095 PWs)   bands (ev):

   -25.0028 -24.9983 -10.3532 -10.3018 -10.1821 -10.1608 -10.1216 -10.0846
    -6.4489  -5.6726  -5.2313  -5.0701  -2.0807  -1.3198  -1.2947  -0.9774
    -0.6164  -0.6044  -0.5992  -0.4552  -0.3086  -0.0202   0.0079   0.0326

          k = 0.0000 0.0000 0.3627 ( 27081 PWs)   bands (ev):

   -24.9983 -24.9951 -10.2920 -10.2847 -10.2667 -10.2589 -10.1714 -10.1607
    -6.0801  -5.4994  -5.3368  -5.2273  -1.7661  -1.5527  -1.1017  -1.1002
    -0.9862  -0.8947  -0.5974  -0.3676  -0.1764  -0.1665  -0.0970   0.0202

          k = 0.0000 0.0000-0.7253 ( 27084 PWs)   bands (ev):

   -24.9928 -24.9928 -10.4311 -10.4310 -10.1986 -10.1985 -10.1836 -10.1836
    -5.5242  -5.5237  -5.4159  -5.4155  -1.5297  -1.5292  -1.5103  -1.5090
    -0.6732  -0.6724  -0.6208  -0.6195  -0.1556  -0.1555  -0.1346  -0.1342

          k = 0.0000 0.2433 0.0000 ( 27145 PWs)   bands (ev):

   -25.0022 -24.9989 -10.3341 -10.2847 -10.2096 -10.1808 -10.1161 -10.0899
    -6.3000  -5.6133  -5.4299  -5.1629  -1.8046  -1.4704  -1.3648  -0.7159
    -0.7007  -0.6940  -0.4318  -0.3298  -0.2845  -0.2431  -0.0908  -0.0157

          k = 0.0000 0.2433 0.3627 ( 27120 PWs)   bands (ev):

   -24.9978 -24.9955 -10.3138 -10.2858 -10.2467 -10.2439 -10.1746 -10.1723
    -5.9918  -5.5480  -5.3772  -5.2638  -1.6059  -1.5742  -1.3609  -0.9060
    -0.8820  -0.7275  -0.6940  -0.3276  -0.2365  -0.2278  -0.1129  -0.0680

          k = 0.0000 0.2433-0.7253 ( 27078 PWs)   bands (ev):

   -24.9928 -24.9928 -10.4396 -10.4395 -10.1886 -10.1886 -10.1830 -10.1830
    -5.6926  -5.6925  -5.2428  -5.2427  -1.6131  -1.6125  -1.3872  -1.3866
    -0.6094  -0.6086  -0.5915  -0.5907  -0.2778  -0.2777  -0.1437  -0.1434

          k = 0.0000-0.4866 0.0000 ( 27130 PWs)   bands (ev):

   -25.0005 -25.0005 -10.2852 -10.2852 -10.2249 -10.2249 -10.1029 -10.1029
    -5.9185  -5.9185  -5.3721  -5.3721  -1.5690  -1.5690  -0.9829  -0.9829
    -0.7550  -0.7550  -0.3729  -0.3729  -0.2231  -0.2231  -0.1261  -0.1261

          k = 0.0000-0.4866 0.3627 ( 27118 PWs)   bands (ev):

   -24.9967 -24.9967 -10.3106 -10.3106 -10.2219 -10.2219 -10.1874 -10.1874
    -5.7693  -5.7693  -5.3391  -5.3391  -1.5519  -1.5519  -1.1839  -1.1839
    -0.6973  -0.6973  -0.4405  -0.4405  -0.3264  -0.3264  -0.1304  -0.1304

          k = 0.0000-0.4866-0.7253 ( 27052 PWs)   bands (ev):

   -24.9928 -24.9928 -10.4474 -10.4474 -10.1848 -10.1848 -10.1768 -10.1768
    -5.7792  -5.7792  -5.1517  -5.1517  -1.6852  -1.6852  -1.2072  -1.2072
    -0.6486  -0.6486  -0.5201  -0.5201  -0.4446  -0.4446  -0.1125  -0.1125

          k = 0.2494 0.0000 0.0000 ( 27118 PWs)   bands (ev):

   -25.0022 -24.9989 -10.3297 -10.2892 -10.2065 -10.1879 -10.1161 -10.0899
    -6.3078  -5.7237  -5.2479  -5.1777  -1.9206  -1.2272  -1.1980  -1.0682
    -0.5948  -0.5653  -0.4917  -0.4631  -0.3659  -0.3495  -0.0482  -0.0144

          k = 0.2494 0.0000 0.3627 ( 27150 PWs)   bands (ev):

   -24.9978 -24.9955 -10.3069 -10.2935 -10.2651 -10.2288 -10.1839 -10.1644
    -5.9657  -5.5086  -5.3526  -5.3215  -1.7265  -1.5380  -1.3605  -0.9793
    -0.9362  -0.7297  -0.5295  -0.4102  -0.3090  -0.1823  -0.0377  -0.0119

          k = 0.2494 0.0000-0.7253 ( 27084 PWs)   bands (ev):

   -24.9928 -24.9928 -10.4420 -10.4419 -10.1920 -10.1919 -10.1807 -10.1807
    -5.5390  -5.5387  -5.3824  -5.3821  -1.9149  -1.9145  -1.1806  -1.1802
    -0.6649  -0.6646  -0.4206  -0.4192  -0.3006  -0.3004  -0.0958  -0.0955

          k = 0.2494 0.2433 0.0000 ( 27135 PWs)   bands (ev):

   -25.0017 -24.9994 -10.3444 -10.2761 -10.2332 -10.1645 -10.1121 -10.0936
    -6.1922  -5.6932  -5.4083  -5.2242  -1.6969  -1.4292  -1.2109  -0.8164
    -0.7232  -0.6909  -0.4761  -0.3298  -0.3226  -0.2435  -0.2001  -0.0756

          k = 0.2494 0.2433 0.3627 ( 27112 PWs)   bands (ev):

   -24.9975 -24.9959 -10.3067 -10.2860 -10.2838 -10.2204 -10.1863 -10.1619
    -5.8912  -5.5151  -5.4376  -5.3290  -1.6933  -1.4710  -1.4349  -0.9735
    -0.8082  -0.6672  -0.5795  -0.3974  -0.3217  -0.2194  -0.0985  -0.0289

          k = 0.2494 0.2433-0.7253 ( 27094 PWs)   bands (ev):

   -24.9928 -24.9928 -10.4468 -10.4325 -10.2019 -10.1860 -10.1820 -10.1802
    -5.6915  -5.5819  -5.3362  -5.2247  -1.8930  -1.8375  -1.2283  -1.1792
    -0.6988  -0.6918  -0.4310  -0.4131  -0.2688  -0.2541  -0.1335  -0.1115

          k = 0.2494-0.4866 0.0000 ( 27082 PWs)   bands (ev):

   -25.0005 -25.0005 -10.3275 -10.3275 -10.1841 -10.1841 -10.1027 -10.1027
    -5.8993  -5.8993  -5.3883  -5.3883  -1.4828  -1.4828  -0.9957  -0.9957
    -0.7775  -0.7775  -0.4078  -0.4078  -0.2020  -0.2020  -0.1969  -0.1969

          k = 0.2494-0.4866 0.3627 ( 27106 PWs)   bands (ev):

   -24.9967 -24.9967 -10.3050 -10.3050 -10.2498 -10.2498 -10.1689 -10.1689
    -5.7028  -5.7028  -5.3956  -5.3956  -1.6106  -1.6106  -1.1716  -1.1716
    -0.6788  -0.6788  -0.4200  -0.4200  -0.3204  -0.3204  -0.1171  -0.1171

          k = 0.2494-0.4866-0.7253 ( 27080 PWs)   bands (ev):

   -24.9928 -24.9928 -10.4379 -10.4379 -10.1929 -10.1929 -10.1841 -10.1841
    -5.7085  -5.7085  -5.2045  -5.2045  -1.8042  -1.8042  -1.2718  -1.2718
    -0.6061  -0.6061  -0.4849  -0.4849  -0.2858  -0.2858  -0.1128  -0.1128

          k =-0.4987 0.0000 0.0000 ( 27118 PWs)   bands (ev):

   -25.0005 -25.0005 -10.2767 -10.2767 -10.2375 -10.2375 -10.1029 -10.1029
    -5.9786  -5.9786  -5.2654  -5.2654  -1.5649  -1.5649  -0.8959  -0.8959
    -0.5808  -0.5808  -0.5555  -0.5555  -0.4561  -0.4561  -0.1357  -0.1357

          k =-0.4987 0.0000 0.3627 ( 27146 PWs)   bands (ev):

   -24.9967 -24.9967 -10.3115 -10.3115 -10.2326 -10.2326 -10.1814 -10.1814
    -5.6960  -5.6960  -5.3806  -5.3806  -1.6462  -1.6462  -1.2128  -1.2128
    -0.7001  -0.7001  -0.5365  -0.5365  -0.2108  -0.2108  -0.0504  -0.0504

          k =-0.4987 0.0000-0.7253 ( 27108 PWs)   bands (ev):

   -24.9928 -24.9928 -10.4521 -10.4521 -10.1884 -10.1884 -10.1755 -10.1755
    -5.5514  -5.5514  -5.3504  -5.3504  -2.0927  -2.0927  -0.9738  -0.9738
    -0.6806  -0.6806  -0.5120  -0.5120  -0.1454  -0.1454  -0.1205  -0.1205

          k =-0.4987 0.2433 0.0000 ( 27144 PWs)   bands (ev):

   -25.0005 -25.0005 -10.3267 -10.3267 -10.1869 -10.1869 -10.1027 -10.1027
    -5.9345  -5.9345  -5.3298  -5.3298  -1.4877  -1.4877  -0.9039  -0.9039
    -0.7183  -0.7183  -0.5992  -0.5992  -0.2781  -0.2781  -0.1544  -0.1544

          k =-0.4987 0.2433 0.3627 ( 27114 PWs)   bands (ev):

   -24.9967 -24.9967 -10.3055 -10.3055 -10.2529 -10.2529 -10.1680 -10.1680
    -5.6552  -5.6552  -5.4272  -5.4272  -1.6514  -1.6514  -1.2022  -1.2022
    -0.6656  -0.6656  -0.4881  -0.4881  -0.2232  -0.2232  -0.1020  -0.1020

          k =-0.4987 0.2433-0.7253 ( 27092 PWs)   bands (ev):

   -24.9928 -24.9928 -10.4404 -10.4404 -10.1940 -10.1940 -10.1839 -10.1839
    -5.5884  -5.5884  -5.3100  -5.3100  -2.0151  -2.0151  -1.1411  -1.1411
    -0.6375  -0.6375  -0.4639  -0.4639  -0.1856  -0.1856  -0.0742  -0.0742

          k =-0.4987-0.4866 0.0000 ( 27116 PWs)   bands (ev):

   -25.0005 -25.0005 -10.3533 -10.3533 -10.1596 -10.1596 -10.1026 -10.1026
    -5.8796  -5.8796  -5.4045  -5.4045  -1.3752  -1.3752  -1.0292  -1.0292
    -0.7985  -0.7985  -0.4212  -0.4212  -0.2900  -0.2900  -0.1824  -0.1824

          k =-0.4987-0.4866 0.3627 ( 27072 PWs)   bands (ev):

   -24.9966 -24.9966 -10.2951 -10.2951 -10.2731 -10.2731 -10.1591 -10.1591
    -5.5804  -5.5804  -5.5077  -5.5077  -1.6355  -1.6355  -1.2541  -1.2541
    -0.5257  -0.5257  -0.4208  -0.4208  -0.2864  -0.2864  -0.1866  -0.1866

          k =-0.4987-0.4866-0.7253 ( 27088 PWs)   bands (ev):

   -24.9928 -24.9928 -10.4273 -10.4273 -10.2058 -10.2058 -10.1876 -10.1876
    -5.6170  -5.6170  -5.2779  -5.2779  -1.8893  -1.8893  -1.3803  -1.3803
    -0.4537  -0.4537  -0.4224  -0.4224  -0.2756  -0.2756  -0.0917  -0.0917

     highest occupied level (ev):     0.0326

!    total energy              =    -156.45874253 Ry
     estimated scf accuracy    <          4.4E-11 Ry

     The total energy is the sum of the following terms:
     one-electron contribution =     -30.47817161 Ry
     hartree contribution      =      28.11711393 Ry
     xc contribution           =     -48.89094099 Ry
     ewald contribution        =    -105.20674386 Ry

     convergence has been achieved in   8 iterations

     Forces acting on atoms (cartesian axes, Ry/au):

     atom    1 type  2   force =     0.00000000    0.00000000    0.00000272
     atom    2 type  2   force =     0.00000000    0.00000000   -0.00000272
     atom    3 type  1   force =     0.00074122    0.00188958   -0.00000774
     atom    4 type  1   force =    -0.00074122   -0.00188958   -0.00000774
     atom    5 type  1   force =     0.00074122   -0.00188958    0.00000774
     atom    6 type  1   force =    -0.00074122    0.00188958    0.00000774
     atom    7 type  3   force =     0.00061711    0.00102923   -0.00000891
     atom    8 type  3   force =    -0.00061711   -0.00102923   -0.00000891
     atom    9 type  3   force =     0.00061711   -0.00102923    0.00000891
     atom   10 type  3   force =    -0.00061711    0.00102923    0.00000891
     atom   11 type  3   force =     0.00021460    0.00252504   -0.00000046
     atom   12 type  3   force =    -0.00021460   -0.00252504   -0.00000046
     atom   13 type  3   force =     0.00021460   -0.00252504    0.00000046
     atom   14 type  3   force =    -0.00021460    0.00252504    0.00000046
     atom   15 type  3   force =     0.00104780    0.00089853   -0.00085405
     atom   16 type  3   force =    -0.00104780   -0.00089853   -0.00085405
     atom   17 type  3   force =     0.00104780   -0.00089853    0.00085405
     atom   18 type  3   force =    -0.00104780    0.00089853    0.00085405
     atom   19 type  3   force =    -0.00102384   -0.00090490    0.00084344
     atom   20 type  3   force =     0.00102384    0.00090490    0.00084344
     atom   21 type  3   force =    -0.00102384    0.00090490   -0.00084344
     atom   22 type  3   force =     0.00102384   -0.00090490   -0.00084344

     Total force =     0.008293     Total SCF correction =     0.000003


     Computing stress (Cartesian axis) and pressure

          total   stress  (Ry/bohr**3)                   (kbar)     P=      -23.64
  -0.00014734   0.00000000   0.00000000          -21.68        0.00        0.00
   0.00000000  -0.00015100   0.00000000            0.00      -22.21        0.00
   0.00000000   0.00000000  -0.00018370            0.00        0.00      -27.02

     Volume is kept fixed: isostatic pressure set to zero
     Energy error            =      4.8E-04 Ry
     Gradient error          =      2.5E-03 Ry/Bohr
     Cell gradient error     =      3.4E+00 kbar

     number of scf cycles    =   4
     number of bfgs steps    =   3

     enthalpy           old  =    -156.4582597963 Ry
     enthalpy           new  =    -156.4587425279 Ry

     CASE: enthalpy          _new < enthalpy          _old

     new trust radius        =       0.0057620599 bohr
ibrav =      8
 celldm(1) =     13.16311932
 celldm(2) =      1.02483219
 celldm(3) =      0.68681258
Input lattice vectors:
     1.00294249     0.00000000     0.00000000
     0.00000000     1.02784776     0.00000000
     0.00000000     0.00000000     0.68883352
New lattice vectors in INITIAL alat:
     1.00294249     0.00000000     0.00000000
     0.00000000     1.02784776     0.00000000
     0.00000000     0.00000000     0.68883352
New lattice vectors in NEW alat (for information only):
     1.00000000     0.00000000     0.00000000
     0.00000000     1.02483219     0.00000000
     0.00000000     0.00000000     0.68681258
Discrepancy in bohr =     0.000000    0.000000    0.000000
     new conv_thr            =            4.8E-11 Ry

     new unit-cell volume =   1605.34157 a.u.^3 (   237.88708 Ang^3 )
     density =      2.33162 g/cm^3

CELL_PARAMETERS (alat= 13.12450057)
   1.002942493   0.000000000   0.000000000
   0.000000000   1.027847756   0.000000000
   0.000000000   0.000000000   0.688833518

ATOMIC_POSITIONS (crystal)
Ba               0.5000000000        0.5000000000        0.5001024578
Ba               0.0000000000        0.0000000000        0.9998975422
B                0.6106057699        0.2405174866        0.0000587323
B                0.3893942301        0.7594825134        0.0000587323
B                0.1106057699        0.2594825134        0.4999412677
B                0.8893942301        0.7405174866        0.4999412677
H                0.4408157123        0.2907483313        0.0002198590
H                0.5591842877        0.7092516687        0.0002198590
H                0.9408157123        0.2092516687        0.4997801410
H                0.0591842877        0.7907483313        0.4997801410
H                0.7177119031        0.3789244910       -0.0000051415
H                0.2822880969        0.6210755090       -0.0000051415
H                0.2177119031        0.1210755090        0.5000051415
H                0.7822880969        0.8789244910        0.5000051415
H                0.6386791779        0.1460141750        0.7886281497
H                0.3613208221        0.8539858250        0.7886281497
H                0.1386791779        0.3539858250        0.7113718503
H                0.8613208221        0.6460141750        0.7113718503
H                0.3611250349        0.8540295776        0.2113899586
H                0.6388749651        0.1459704224        0.2113899586
H                0.8611250349        0.6459704224        0.2886100414
H                0.1388749651        0.3540295776        0.2886100414



     Writing config-only to output data dir ./pwscf.save/ :
     XML data file
     NEW-OLD atomic charge density approx. for the potential

     total cpu time spent up to now is      953.4 secs

     Self-consistent Calculation

     iteration #  1     ecut=   100.00 Ry     beta= 0.70
     Davidson diagonalization with overlap
     ethr =  1.00E-06,  avg # of iterations =  2.0

     Threshold (ethr) on eigenvalues was too large:
     Diagonalizing with lowered threshold

     Davidson diagonalization with overlap
     ethr =  1.18E-08,  avg # of iterations =  3.2

     total cpu time spent up to now is      988.8 secs

     total energy              =    -156.45884786 Ry
     estimated scf accuracy    <       0.00000795 Ry

     iteration #  2     ecut=   100.00 Ry     beta= 0.70
     Davidson diagonalization with overlap
     ethr =  1.66E-08,  avg # of iterations =  2.0

     total cpu time spent up to now is     1005.3 secs

     total energy              =    -156.45884939 Ry
     estimated scf accuracy    <       0.00000049 Ry

     iteration #  3     ecut=   100.00 Ry     beta= 0.70
     Davidson diagonalization with overlap
     ethr =  1.03E-09,  avg # of iterations =  2.0

     total cpu time spent up to now is     1021.9 secs

     total energy              =    -156.45884947 Ry
     estimated scf accuracy    <       0.00000002 Ry

     iteration #  4     ecut=   100.00 Ry     beta= 0.70
     Davidson diagonalization with overlap
     ethr =  4.54E-11,  avg # of iterations =  4.6

     total cpu time spent up to now is     1041.9 secs

     total energy              =    -156.45884947 Ry
     estimated scf accuracy    <          2.2E-09 Ry

     iteration #  5     ecut=   100.00 Ry     beta= 0.70
     Davidson diagonalization with overlap
     ethr =  4.66E-12,  avg # of iterations =  5.3

     total cpu time spent up to now is     1065.4 secs

     total energy              =    -156.45884948 Ry
     estimated scf accuracy    <          1.3E-10 Ry

     iteration #  6     ecut=   100.00 Ry     beta= 0.70
     Davidson diagonalization with overlap
     ethr =  2.73E-13,  avg # of iterations =  4.8

     total cpu time spent up to now is     1086.6 secs

     End of self-consistent calculation

          k = 0.0000 0.0000 0.0000 ( 27095 PWs)   bands (ev):

   -25.0017 -24.9972 -10.3529 -10.3013 -10.1816 -10.1601 -10.1205 -10.0837
    -6.4506  -5.6749  -5.2334  -5.0728  -2.0843  -1.3218  -1.2966  -0.9820
    -0.6145  -0.6095  -0.5949  -0.4538  -0.3050  -0.0235   0.0052   0.0268

          k = 0.0000 0.0000 0.3629 ( 27081 PWs)   bands (ev):

   -24.9971 -24.9939 -10.2913 -10.2848 -10.2669 -10.2581 -10.1706 -10.1598
    -6.0806  -5.5002  -5.3396  -5.2304  -1.7678  -1.5547  -1.1040  -1.1020
    -0.9863  -0.8930  -0.5983  -0.3683  -0.1812  -0.1687  -0.0981   0.0155

          k = 0.0000 0.0000-0.7259 ( 27084 PWs)   bands (ev):

   -24.9916 -24.9916 -10.4323 -10.4322 -10.1974 -10.1974 -10.1827 -10.1827
    -5.5236  -5.5231  -5.4196  -5.4191  -1.5289  -1.5285  -1.5123  -1.5110
    -0.6747  -0.6738  -0.6223  -0.6210  -0.1604  -0.1604  -0.1368  -0.1366

          k = 0.0000 0.2432 0.0000 ( 27145 PWs)   bands (ev):

   -25.0010 -24.9978 -10.3337 -10.2843 -10.2089 -10.1801 -10.1150 -10.0890
    -6.3017  -5.6164  -5.4310  -5.1653  -1.8088  -1.4729  -1.3666  -0.7203
    -0.6971  -0.6914  -0.4369  -0.3277  -0.2896  -0.2402  -0.0940  -0.0187

          k = 0.0000 0.2432 0.3629 ( 27120 PWs)   bands (ev):

[...]
        18        H      tau(  18) = (   0.8468186   0.7049626   0.4774944  )
        19        H      tau(  19) = (   0.3258745   0.8415717   0.1469898  )
        20        H      tau(  20) = (   0.7160013   0.1894502   0.1469898  )
        21        H      tau(  21) = (   0.8468124   0.7049612   0.1835359  )
        22        H      tau(  22) = (   0.1950634   0.3260607   0.1835359  )

     number of k points=    27
                       cart. coord. in units 2pi/alat
        k(    1) = (   0.0000000   0.0000000   0.0000000), wk =   0.0312500
        k(    2) = (   0.0000000   0.0000000   0.3781854), wk =   0.0625000
        k(    3) = (   0.0000000   0.0000000  -0.7563708), wk =   0.0312500
        k(    4) = (   0.0000000   0.2424779   0.0000000), wk =   0.0625000
        k(    5) = (   0.0000000   0.2424779   0.3781854), wk =   0.1250000
        k(    6) = (   0.0000000   0.2424779  -0.7563708), wk =   0.0625000
        k(    7) = (   0.0000000  -0.4849557   0.0000000), wk =   0.0312500
        k(    8) = (   0.0000000  -0.4849557   0.3781854), wk =   0.0625000
        k(    9) = (   0.0000000  -0.4849557  -0.7563708), wk =   0.0312500
        k(   10) = (   0.2399518   0.0000000   0.0000000), wk =   0.0625000
        k(   11) = (   0.2399518   0.0000000   0.3781854), wk =   0.1250000
        k(   12) = (   0.2399518   0.0000000  -0.7563708), wk =   0.0625000
        k(   13) = (   0.2399518   0.2424779   0.0000000), wk =   0.1250000
        k(   14) = (   0.2399518   0.2424779   0.3781854), wk =   0.2500000
        k(   15) = (   0.2399518   0.2424779  -0.7563708), wk =   0.1250000
        k(   16) = (   0.2399518  -0.4849557   0.0000000), wk =   0.0625000
        k(   17) = (   0.2399518  -0.4849557   0.3781854), wk =   0.1250000
        k(   18) = (   0.2399518  -0.4849557  -0.7563708), wk =   0.0625000
        k(   19) = (  -0.4799037   0.0000000   0.0000000), wk =   0.0312500
        k(   20) = (  -0.4799037   0.0000000   0.3781854), wk =   0.0625000
        k(   21) = (  -0.4799037   0.0000000  -0.7563708), wk =   0.0312500
        k(   22) = (  -0.4799037   0.2424779   0.0000000), wk =   0.0625000
        k(   23) = (  -0.4799037   0.2424779   0.3781854), wk =   0.1250000
        k(   24) = (  -0.4799037   0.2424779  -0.7563708), wk =   0.0625000
        k(   25) = (  -0.4799037  -0.4849557   0.0000000), wk =   0.0312500
        k(   26) = (  -0.4799037  -0.4849557   0.3781854), wk =   0.0625000
        k(   27) = (  -0.4799037  -0.4849557  -0.7563708), wk =   0.0312500

     Dense  grid:   613353 G-vectors     FFT dimensions: ( 128, 128,  80)

     Smooth grid:   216939 G-vectors     FFT dimensions: (  90,  90,  60)

     Estimated max dynamical RAM per process >      98.69 MB

     Estimated total dynamical RAM >       2.31 GB

     Initial potential from superposition of free atoms

     starting charge      47.9682, renormalised to      48.0000
     Starting wfcs are   42 randomized atomic wfcs

     total cpu time spent up to now is    12156.4 secs

     Self-consistent Calculation

     iteration #  1     ecut=   100.00 Ry     beta= 0.70
     Davidson diagonalization with overlap
     ethr =  1.00E-06,  avg # of iterations = 11.1

     total cpu time spent up to now is    12209.0 secs

     total energy              =    -155.81796289 Ry
     estimated scf accuracy    <       2.32165599 Ry

     iteration #  2     ecut=   100.00 Ry     beta= 0.70
     Davidson diagonalization with overlap
     ethr =  4.84E-03,  avg # of iterations =  2.0

     total cpu time spent up to now is    12225.7 secs

     total energy              =    -156.38963663 Ry
     estimated scf accuracy    <       0.47753011 Ry

     iteration #  3     ecut=   100.00 Ry     beta= 0.70
     Davidson diagonalization with overlap
     ethr =  9.95E-04,  avg # of iterations =  2.0

     total cpu time spent up to now is    12242.5 secs

     total energy              =    -156.46535719 Ry
     estimated scf accuracy    <       0.00572261 Ry

     iteration #  4     ecut=   100.00 Ry     beta= 0.70
     Davidson diagonalization with overlap
     ethr =  1.19E-05,  avg # of iterations =  3.4

     total cpu time spent up to now is    12263.2 secs

     total energy              =    -156.46755799 Ry
     estimated scf accuracy    <       0.00233286 Ry

     iteration #  5     ecut=   100.00 Ry     beta= 0.70
     Davidson diagonalization with overlap
     ethr =  4.86E-06,  avg # of iterations =  3.2

     total cpu time spent up to now is    12280.7 secs

     total energy              =    -156.46821945 Ry
     estimated scf accuracy    <       0.00006320 Ry

     iteration #  6     ecut=   100.00 Ry     beta= 0.70
     Davidson diagonalization with overlap
     ethr =  1.32E-07,  avg # of iterations =  5.9

     total cpu time spent up to now is    12307.3 secs

     total energy              =    -156.46831755 Ry
     estimated scf accuracy    <       0.00001832 Ry

     iteration #  7     ecut=   100.00 Ry     beta= 0.70
     Davidson diagonalization with overlap
     ethr =  3.82E-08,  avg # of iterations =  3.2

     total cpu time spent up to now is    12325.0 secs

     total energy              =    -156.46832266 Ry
     estimated scf accuracy    <       0.00000014 Ry

     iteration #  8     ecut=   100.00 Ry     beta= 0.70
     Davidson diagonalization with overlap
     ethr =  2.86E-10,  avg # of iterations =  6.7

     total cpu time spent up to now is    12356.3 secs

     total energy              =    -156.46832311 Ry
     estimated scf accuracy    <       0.00000001 Ry

     iteration #  9     ecut=   100.00 Ry     beta= 0.70
     Davidson diagonalization with overlap
     ethr =  2.44E-11,  avg # of iterations =  4.5

     total cpu time spent up to now is    12377.7 secs

     total energy              =    -156.46832312 Ry
     estimated scf accuracy    <          6.5E-09 Ry

     iteration # 10     ecut=   100.00 Ry     beta= 0.70
     Davidson diagonalization with overlap
     ethr =  1.36E-11,  avg # of iterations =  2.2

     total cpu time spent up to now is    12394.5 secs

     total energy              =    -156.46832312 Ry
     estimated scf accuracy    <          5.0E-10 Ry

     iteration # 11     ecut=   100.00 Ry     beta= 0.70
     Davidson diagonalization with overlap
     ethr =  1.05E-12,  avg # of iterations =  5.2

     total cpu time spent up to now is    12418.2 secs

     total energy              =    -156.46832312 Ry
     estimated scf accuracy    <          9.8E-11 Ry

     iteration # 12     ecut=   100.00 Ry     beta= 0.70
     Davidson diagonalization with overlap
     ethr =  2.04E-13,  avg # of iterations =  4.0

     total cpu time spent up to now is    12437.8 secs

     total energy              =    -156.46832312 Ry
     estimated scf accuracy    <          4.3E-12 Ry

     iteration # 13     ecut=   100.00 Ry     beta= 0.70
     Davidson diagonalization with overlap
     ethr =  1.00E-13,  avg # of iterations =  1.9

     total cpu time spent up to now is    12451.7 secs

     End of self-consistent calculation

          k = 0.0000 0.0000 0.0000 ( 27159 PWs)   bands (ev):

   -24.7584 -24.7534 -10.2442 -10.2125 -10.0150  -9.9895  -9.9206  -9.8767
    -6.6140  -5.8096  -5.2881  -5.2445  -2.3768  -1.3885  -1.2989  -1.1000
    -1.0597  -0.8582  -0.8224  -0.5872  -0.3461  -0.1589  -0.0673  -0.0549

          k = 0.0000 0.0000 0.3782 ( 27130 PWs)   bands (ev):

   -24.7504 -24.7469 -10.1893 -10.1730 -10.1552 -10.1327  -9.9959  -9.9789
    -6.1126  -5.5042  -5.4688  -5.4393  -1.9506  -1.8453  -1.6753  -1.1120
    -1.0407  -1.0050  -0.6840  -0.4529  -0.3169  -0.2725  -0.2675  -0.1723

          k = 0.0000 0.0000-0.7564 ( 27108 PWs)   bands (ev):

   -24.7414 -24.7414 -10.4213 -10.4213 -10.0181 -10.0181 -10.0088 -10.0088
    -5.6511  -5.6511  -5.4225  -5.4224  -1.9768  -1.9767  -1.7094  -1.7094
    -0.7210  -0.7209  -0.6484  -0.6483  -0.3753  -0.3753  -0.2502  -0.2501

          k = 0.0000 0.2425 0.0000 ( 27115 PWs)   bands (ev):

   -24.7576 -24.7541 -10.2221 -10.1908 -10.0450 -10.0173  -9.9142  -9.8831
    -6.4704  -5.8354  -5.4155  -5.3026  -2.1542  -1.5894  -1.3567  -0.8529
    -0.8293  -0.8275  -0.8233  -0.5632  -0.4040  -0.3885  -0.1608  -0.1497

          k = 0.0000 0.2425 0.3782 ( 27100 PWs)   bands (ev):

   -24.7499 -24.7474 -10.2094 -10.1886 -10.1173 -10.1145 -10.0032  -9.9947
    -6.0279  -5.5895  -5.4842  -5.4532  -1.8658  -1.8635  -1.6859  -1.0778
    -0.9950  -0.8524  -0.7659  -0.4691  -0.3632  -0.2730  -0.2708  -0.2703

          k = 0.0000 0.2425-0.7564 ( 27134 PWs)   bands (ev):

   -24.7414 -24.7414 -10.4282 -10.4282 -10.0135 -10.0135 -10.0034 -10.0034
    -5.7872  -5.7872  -5.2774  -5.2773  -2.1212  -2.1211  -1.5332  -1.5332
    -0.7044  -0.7043  -0.5852  -0.5851  -0.4064  -0.4063  -0.3245  -0.3245

          k = 0.0000-0.4850 0.0000 ( 27056 PWs)   bands (ev):

   -24.7559 -24.7559 -10.1760 -10.1760 -10.0685 -10.0685  -9.8986  -9.8986
    -6.1186  -6.1186  -5.4236  -5.4236  -1.8341  -1.8341  -1.0259  -1.0259
    -0.8370  -0.8370  -0.5551  -0.5551  -0.4840  -0.4840  -0.3056  -0.3056

          k = 0.0000-0.4850 0.3782 ( 27084 PWs)   bands (ev):

   -24.7486 -24.7486 -10.2104 -10.2104 -10.0887 -10.0887 -10.0162 -10.0162
    -5.8154  -5.8154  -5.4766  -5.4766  -1.8749  -1.8749  -1.3829  -1.3829
    -0.8168  -0.8168  -0.5754  -0.5754  -0.4425  -0.4425  -0.2626  -0.2626

          k = 0.0000-0.4850-0.7564 ( 27140 PWs)   bands (ev):

   -24.7414 -24.7414 -10.4348 -10.4348 -10.0123 -10.0123  -9.9949  -9.9949
    -5.8704  -5.8704  -5.1848  -5.1848  -2.2172  -2.2172  -1.3696  -1.3696
    -0.6909  -0.6909  -0.5749  -0.5749  -0.5238  -0.5238  -0.2899  -0.2899

          k = 0.2400 0.0000 0.0000 ( 27106 PWs)   bands (ev):

   -24.7576 -24.7541 -10.2182 -10.1931 -10.0422 -10.0223  -9.9142  -9.8832
    -6.4768  -5.8704  -5.3397  -5.3205  -2.1785  -1.4287  -1.2818  -1.1321
    -0.8199  -0.8071  -0.7789  -0.5950  -0.4128  -0.3698  -0.2290  -0.1444

          k = 0.2400 0.0000 0.3782 ( 27112 PWs)   bands (ev):

   -24.7499 -24.7474 -10.2069 -10.1898 -10.1331 -10.1016 -10.0099  -9.9880
    -6.0173  -5.5424  -5.5056  -5.4810  -1.9162  -1.7589  -1.7465  -1.0856
    -0.9718  -0.8928  -0.7366  -0.5060  -0.4118  -0.2786  -0.2448  -0.2252

          k = 0.2400 0.0000-0.7564 ( 27080 PWs)   bands (ev):

   -24.7414 -24.7414 -10.4293 -10.4293 -10.0167 -10.0167 -10.0003 -10.0003
    -5.7420  -5.7419  -5.3183  -5.3183  -2.2101  -2.2100  -1.4534  -1.4533
    -0.6729  -0.6728  -0.6203  -0.6203  -0.4212  -0.4212  -0.2826  -0.2826

          k = 0.2400 0.2425 0.0000 ( 27097 PWs)   bands (ev):

   -24.7571 -24.7546 -10.2388 -10.1716 -10.0726  -9.9963  -9.9096  -9.8876
    -6.3856  -5.9283  -5.4249  -5.3052  -2.0220  -1.5827  -1.3186  -0.9308
    -0.8728  -0.8119  -0.6413  -0.5598  -0.5456  -0.4039  -0.3210  -0.1232

          k = 0.2400 0.2425 0.3782 ( 27116 PWs)   bands (ev):

   -24.7495 -24.7477 -10.2053 -10.1873 -10.1514 -10.0880 -10.0160  -9.9831
    -5.9512  -5.6172  -5.5155  -5.4778  -1.9007  -1.8152  -1.6688  -1.1782
    -0.9090  -0.8296  -0.6977  -0.4778  -0.4575  -0.3208  -0.2581  -0.2035

          k = 0.2400 0.2425-0.7564 ( 27106 PWs)   bands (ev):

   -24.7414 -24.7414 -10.4336 -10.4224 -10.0180 -10.0159 -10.0089  -9.9943
    -5.8376  -5.6866  -5.3736  -5.2142  -2.2764  -2.0913  -1.6576  -1.4095
    -0.7227  -0.6362  -0.5234  -0.5060  -0.4387  -0.4162  -0.3535  -0.2318

          k = 0.2400-0.4850 0.0000 ( 27108 PWs)   bands (ev):

   -24.7559 -24.7559 -10.2180 -10.2180 -10.0234 -10.0234  -9.8985  -9.8985
    -6.1526  -6.1526  -5.3868  -5.3868  -1.7762  -1.7762  -1.1067  -1.1067
    -0.8711  -0.8711  -0.5777  -0.5777  -0.4458  -0.4458  -0.2680  -0.2680

          k = 0.2400-0.4850 0.3782 ( 27082 PWs)   bands (ev):

   -24.7486 -24.7486 -10.2004 -10.2004 -10.1212 -10.1212  -9.9949  -9.9949
    -5.7886  -5.7886  -5.4998  -5.4998  -1.8777  -1.8777  -1.4357  -1.4357
    -0.8209  -0.8209  -0.5731  -0.5731  -0.3358  -0.3358  -0.2863  -0.2863

          k = 0.2400-0.4850-0.7564 ( 27116 PWs)   bands (ev):

   -24.7413 -24.7413 -10.4270 -10.4270 -10.0145 -10.0145 -10.0054 -10.0054
    -5.8029  -5.8029  -5.2487  -5.2487  -2.1900  -2.1900  -1.5777  -1.5777
    -0.6497  -0.6497  -0.5017  -0.5017  -0.4070  -0.4070  -0.2766  -0.2766

          k =-0.4799 0.0000 0.0000 ( 27136 PWs)   bands (ev):

   -24.7559 -24.7559 -10.1713 -10.1713 -10.0738 -10.0738  -9.8987  -9.8987
    -6.1480  -6.1480  -5.3789  -5.3789  -1.7959  -1.7959  -0.9239  -0.9239
    -0.7827  -0.7827  -0.7483  -0.7483  -0.5451  -0.5451  -0.3240  -0.3240

          k =-0.4799 0.0000 0.3782 ( 27116 PWs)   bands (ev):

   -24.7486 -24.7486 -10.2100 -10.2100 -10.0943 -10.0943 -10.0126 -10.0126
    -5.7830  -5.7830  -5.5009  -5.5009  -1.8673  -1.8673  -1.4071  -1.4071
    -0.7751  -0.7751  -0.6781  -0.6781  -0.3844  -0.3844  -0.2652  -0.2652

          k =-0.4799 0.0000-0.7564 ( 27140 PWs)   bands (ev):

   -24.7414 -24.7414 -10.4369 -10.4369 -10.0159 -10.0159  -9.9915  -9.9915
    -5.8015  -5.8015  -5.2449  -5.2449  -2.3464  -2.3464  -1.2591  -1.2591
    -0.7098  -0.7098  -0.6102  -0.6102  -0.4010  -0.4010  -0.3112  -0.3112

          k =-0.4799 0.2425 0.0000 ( 27126 PWs)   bands (ev):

   -24.7559 -24.7559 -10.2168 -10.2168 -10.0249 -10.0249  -9.8986  -9.8986
    -6.1662  -6.1662  -5.3655  -5.3655  -1.7568  -1.7568  -1.0647  -1.0647
    -0.8516  -0.8516  -0.6789  -0.6789  -0.4686  -0.4686  -0.2634  -0.2634

          k =-0.4799 0.2425 0.3782 ( 27100 PWs)   bands (ev):

   -24.7486 -24.7486 -10.2000 -10.2000 -10.1233 -10.1233  -9.9939  -9.9939
    -5.7706  -5.7706  -5.5136  -5.5136  -1.8719  -1.8719  -1.4570  -1.4570
    -0.7810  -0.7810  -0.6179  -0.6179  -0.3398  -0.3398  -0.2738  -0.2738

          k =-0.4799 0.2425-0.7564 ( 27112 PWs)   bands (ev):

   -24.7413 -24.7413 -10.4281 -10.4281 -10.0176 -10.0176 -10.0024 -10.0024
    -5.7618  -5.7618  -5.2853  -5.2853  -2.2744  -2.2744  -1.4965  -1.4965
    -0.6464  -0.6464  -0.5627  -0.5627  -0.3753  -0.3753  -0.2320  -0.2320

          k =-0.4799-0.4850 0.0000 ( 27096 PWs)   bands (ev):

   -24.7559 -24.7559 -10.2459 -10.2459  -9.9923  -9.9923  -9.8985  -9.8985
    -6.1839  -6.1839  -5.3526  -5.3526  -1.7050  -1.7050  -1.1992  -1.1992
    -0.9000  -0.9000  -0.5906  -0.5906  -0.4128  -0.4128  -0.2420  -0.2420

          k =-0.4799-0.4850 0.3782 ( 27080 PWs)   bands (ev):

   -24.7486 -24.7486 -10.1793 -10.1793 -10.1576 -10.1576  -9.9808  -9.9808
    -5.7571  -5.7571  -5.5275  -5.5275  -1.8744  -1.8744  -1.5064  -1.5064
    -0.7908  -0.7908  -0.5050  -0.5050  -0.3981  -0.3981  -0.2304  -0.2304

          k =-0.4799-0.4850-0.7564 ( 27104 PWs)   bands (ev):

   -24.7413 -24.7413 -10.4188 -10.4188 -10.0201 -10.0201 -10.0129 -10.0129
    -5.7142  -5.7142  -5.3336  -5.3336  -2.1494  -2.1494  -1.7489  -1.7489
    -0.6286  -0.6286  -0.4528  -0.4528  -0.3687  -0.3687  -0.1898  -0.1898

     highest occupied level (ev):    -0.0549

!    total energy              =    -156.46832312 Ry
     estimated scf accuracy    <          7.7E-14 Ry

     The total energy is the sum of the following terms:
     one-electron contribution =     -37.52775544 Ry
     hartree contribution      =      31.67541733 Ry
     xc contribution           =     -49.06380151 Ry
     ewald contribution        =    -101.55218349 Ry

     convergence has been achieved in  13 iterations

     Forces acting on atoms (cartesian axes, Ry/au):

     atom    1 type  2   force =     0.00000000    0.00000000   -0.00000320
     atom    2 type  2   force =     0.00000000    0.00000000    0.00000320
     atom    3 type  1   force =    -0.00000183    0.00000372   -0.00000451
     atom    4 type  1   force =     0.00000183   -0.00000372   -0.00000451
     atom    5 type  1   force =    -0.00000183   -0.00000372    0.00000451
     atom    6 type  1   force =     0.00000183    0.00000372    0.00000451
     atom    7 type  3   force =    -0.00000041    0.00000023    0.00000363
     atom    8 type  3   force =     0.00000041   -0.00000023    0.00000363
     atom    9 type  3   force =    -0.00000041   -0.00000023   -0.00000363
     atom   10 type  3   force =     0.00000041    0.00000023   -0.00000363
     atom   11 type  3   force =     0.00000013    0.00000066    0.00000252
     atom   12 type  3   force =    -0.00000013   -0.00000066    0.00000252
     atom   13 type  3   force =     0.00000013   -0.00000066   -0.00000252
     atom   14 type  3   force =    -0.00000013    0.00000066   -0.00000252
     atom   15 type  3   force =     0.00000309   -0.00000497   -0.00000434
     atom   16 type  3   force =    -0.00000309    0.00000497   -0.00000434
     atom   17 type  3   force =     0.00000309    0.00000497    0.00000434
     atom   18 type  3   force =    -0.00000309   -0.00000497    0.00000434
     atom   19 type  3   force =     0.00000199   -0.00000070   -0.00000098
     atom   20 type  3   force =    -0.00000199    0.00000070   -0.00000098
     atom   21 type  3   force =     0.00000199    0.00000070    0.00000098
     atom   22 type  3   force =    -0.00000199   -0.00000070    0.00000098

     Total force =     0.000022     Total SCF correction =     0.000000


     Computing stress (Cartesian axis) and pressure

          total   stress  (Ry/bohr**3)                   (kbar)     P=       -5.98
  -0.00004061   0.00000000   0.00000000           -5.97        0.00        0.00
   0.00000000  -0.00004066   0.00000000            0.00       -5.98        0.00
   0.00000000   0.00000000  -0.00004072            0.00        0.00       -5.99


     Writing all to output data dir ./pwscf.save/ :
     XML data file, charge density, pseudopotentials, collected wavefunctions

     init_run     :     20.57s CPU     22.65s WALL (       2 calls)
     electrons    :  10107.81s CPU  10181.41s WALL (      66 calls)
     update_pot   :     16.56s CPU     18.39s WALL (      64 calls)
     forces       :    245.73s CPU    248.68s WALL (      66 calls)
     stress       :   1989.40s CPU   1994.23s WALL (      66 calls)

     Called by init_run:
     wfcinit      :     16.06s CPU     16.16s WALL (       2 calls)
     potinit      :      0.78s CPU      1.27s WALL (       2 calls)
     hinit0       :      1.79s CPU      3.19s WALL (       2 calls)

     Called by electrons:
     c_bands      :   8904.13s CPU   8958.45s WALL (     511 calls)
     sum_band     :   1025.21s CPU   1036.09s WALL (     511 calls)
     v_of_rho     :     76.68s CPU     80.01s WALL (     546 calls)
     newd         :    104.22s CPU    105.93s WALL (     546 calls)
     mix_rho      :      8.39s CPU      9.23s WALL (     511 calls)

     Called by c_bands:
     init_us_2    :    213.75s CPU    216.07s WALL (   31212 calls)
     cegterg      :   7937.18s CPU   7988.41s WALL (   13797 calls)

     Called by *egterg:
     cdiaghg      :    107.04s CPU    107.75s WALL (   61244 calls)
     h_psi        :   5415.78s CPU   5457.17s WALL (   63863 calls)
     s_psi        :   1100.06s CPU   1104.00s WALL (   63863 calls)
     g_psi        :     19.50s CPU     19.60s WALL (   50012 calls)

     Called by h_psi:
     h_psi:calbec :    996.60s CPU   1000.96s WALL (   63863 calls)
     vloc_psi     :   3298.99s CPU   3332.47s WALL (   63863 calls)
     add_vuspsi   :   1102.99s CPU   1106.85s WALL (   63863 calls)

     General routines
     calbec       :   1770.55s CPU   1777.12s WALL (   86570 calls)
     fft          :     53.56s CPU     60.51s WALL (    8711 calls)
     ffts         :      3.12s CPU      3.81s WALL (    1057 calls)
     fftw         :   3310.05s CPU   3343.05s WALL ( 2501840 calls)
     interpolate  :      6.06s CPU      6.97s WALL (     546 calls)

     Parallel routines

     PWSCF        :      3h26m CPU      3h28m WALL


   This run was terminated on:  18:10:35   6Aug2024            

=------------------------------------------------------------------------------=
   JOB DONE.
=------------------------------------------------------------------------------=
