
     Program PHONON v.7.3.1 starts on 12Jul2024 at 12:20:26 

     This program is part of the open-source Quantum ESPRESSO suite
     for quantum simulation of materials; please cite
         "P. Giannozzi et al., J. Phys.:Condens. Matter 21 395502 (2009);
         "P. Giannozzi et al., J. Phys.:Condens. Matter 29 465901 (2017);
         "P. Giannozzi et al., J. Chem. Phys. 152 154105 (2020);
          URL http://www.quantum-espresso.org", 
     in publications or presentations arising from this work. More details at
     http://www.quantum-espresso.org/quote

     Parallel version (MPI), running on    24 processors

     MPI processes distributed on     1 nodes
     94080 MiB available memory on the printing compute node when the environment starts

     Waiting for input...
     Reading input from standard input

     Reading xml data from directory:

     ./pwscf.save/

     R & G space division:  proc/nbgrp/npool/nimage =      24
     Subspace diagonalization in iterative solution of the eigenvalue problem:
     a serial algorithm will be used


     IMPORTANT: XC functional enforced from input :
     Exchange-correlation= PBESOL
                           (   1   4  10   8   0   0   0)
     Any further DFT definition will be discarded
     Please, verify this is what you really want


     Parallelization info
     --------------------
     sticks:   dense  smooth     PW     G-vecs:    dense   smooth      PW
     Min         426     213     57                22374     7913    1113
     Max         427     214     58                22377     7916    1116
     Sum       10239    5125   1391               537021   189955   26755

     Using Slab Decomposition

     Reading collected, re-writing distributed wavefunctions in ./


     Dynamical matrices for ( 3, 3, 3)  uniform grid of q-points
     (   8 q-points):
       N         xq(1)         xq(2)         xq(3) 
       1   0.000000000   0.000000000   0.000000000
       2   0.000000000   0.000000000   0.477897177
       3   0.000000000   0.323605610   0.000000000
       4   0.000000000   0.323605610   0.477897177
       5   0.333333333   0.000000000   0.000000000
       6   0.333333333   0.000000000   0.477897177
       7   0.333333333   0.323605610   0.000000000
       8   0.333333333   0.323605610   0.477897177

     Number and degeneracy of irreps per q-point
       N         xq(1)         xq(2)         xq(3)   N irreps
       1   0.000000000   0.000000000   0.000000000      66
     No degeneracy
Eigenvectors exchange needed   25   57
       2   0.000000000   0.000000000   0.477897177      65
        1   1   1   1   1   1   1   1   1   1   1   1   1   1   1   1   1   1
   1   1   1   1   1   1   2   1   1   1   1   1   1   1   1   1   1   1
   1   1   1   1   1   1   1   1   1   1   1   1   1   1   1   1   1   1
   1   1   1   1   1   1   1   1   1   1   1
       3   0.000000000   0.323605610   0.000000000      66
     No degeneracy
       4   0.000000000   0.323605610   0.477897177      66
     No degeneracy
       5   0.333333333   0.000000000   0.000000000      66
     No degeneracy
       6   0.333333333   0.000000000   0.477897177      66
     No degeneracy
       7   0.333333333   0.323605610   0.000000000      66
     No degeneracy
       8   0.333333333   0.323605610   0.477897177      66
     No degeneracy

     Saving dvscf to file. Distribute only q points, not irreducible representations.

     Calculation of q =    0.0000000   0.0000000   0.0000000

                                                                                

     bravais-lattice index     =            8
     lattice parameter (alat)  =      12.5069  a.u.
     unit-cell volume          =    1405.5657 (a.u.)^3
     number of atoms/cell      =           22
     number of atomic types    =            3
     kinetic-energy cut-off    =     100.0000  Ry
     charge density cut-off    =     800.0000  Ry
     convergence threshold     =      1.0E-14
     beta                      =       0.7000
     number of iterations used =            4
     Exchange-correlation= PBESOL
                           (   1   4  10   8   0   0   0)


     celldm(1)=   12.50685  celldm(2)=    1.03006  celldm(3)=    0.69750
     celldm(4)=    0.00000  celldm(5)=    0.00000  celldm(6)=    0.00000

     crystal axes: (cart. coord. in units of alat)
               a(1) = (  1.0000  0.0000  0.0000 )  
               a(2) = (  0.0000  1.0301  0.0000 )  
               a(3) = (  0.0000  0.0000  0.6975 )  

     reciprocal axes: (cart. coord. in units 2 pi/alat)
               b(1) = (  1.0000  0.0000  0.0000 )  
               b(2) = (  0.0000  0.9708  0.0000 )  
               b(3) = (  0.0000  0.0000  1.4337 )  


     Atoms inside the unit cell: 

     Cartesian axes

     site n.  atom      mass           positions (alat units)
        1  Ba    137.3270   tau(    1) = (    0.50000    0.51503    0.34876  )
        2  Ba    137.3270   tau(    2) = (    0.00000    0.00000    0.69750  )
        3  B      10.8110   tau(    3) = (    0.60807    0.24487   -0.00000  )
        4  B      10.8110   tau(    4) = (    0.39193    0.78519   -0.00000  )
        5  B      10.8110   tau(    5) = (    0.10807    0.27016    0.34875  )
        6  B      10.8110   tau(    6) = (    0.89193    0.75990    0.34875  )
        7  H       1.0079   tau(    7) = (    0.43098    0.30147   -0.00001  )
        8  H       1.0079   tau(    8) = (    0.56902    0.72859   -0.00001  )
        9  H       1.0079   tau(    9) = (    0.93098    0.21356    0.34876  )
       10  H       1.0079   tau(   10) = (    0.06902    0.81650    0.34876  )
       11  H       1.0079   tau(   11) = (    0.72244    0.39307    0.00001  )
       12  H       1.0079   tau(   12) = (    0.27756    0.63699    0.00001  )
       13  H       1.0079   tau(   13) = (    0.22244    0.12196    0.34874  )
       14  H       1.0079   tau(   14) = (    0.77756    0.90810    0.34874  )
       15  H       1.0079   tau(   15) = (    0.63647    0.14412    0.54419  )
       16  H       1.0079   tau(   16) = (    0.36353    0.88594    0.54419  )
       17  H       1.0079   tau(   17) = (    0.13647    0.37091    0.50206  )
       18  H       1.0079   tau(   18) = (    0.86353    0.65915    0.50206  )
       19  H       1.0079   tau(   19) = (    0.36355    0.88593    0.15331  )
       20  H       1.0079   tau(   20) = (    0.63645    0.14413    0.15331  )
       21  H       1.0079   tau(   21) = (    0.86355    0.65916    0.19544  )
       22  H       1.0079   tau(   22) = (    0.13645    0.37090    0.19544  )

     Computing dynamical matrix for 
                    q = (   0.0000000   0.0000000   0.0000000 )

      5 Sym.Ops. (with q -> -q+G )


     G cutoff = 3169.7599  (  22377 G-vectors)     FFT grid: (120,120, 80)
     G cutoff = 1584.8800  (   7915 G-vectors)  smooth grid: ( 80, 90, 60)
     number of k points=    27

     PseudoPot. # 1 for B  read from file:
     /home/mehlhorn/pseudos/b_pbesol_v1.4.uspp.F.UPF
     MD5 check sum: 369b69bef2c3aeed4453bd8b804fd6a8
     Pseudo is Ultrasoft + core correction, Zval =  3.0
     Generated by new atomic code, or converted to UPF format
     Using radial grid of  781 points,  4 beta functions with: 
                l(1) =   0
                l(2) =   0
                l(3) =   1
                l(4) =   1
     Q(r) pseudized with  8 coefficients,  rinner =    1.100   1.100   1.100


     PseudoPot. # 2 for Ba read from file:
     /home/mehlhorn/pseudos/Ba.nc.z_10.oncvpsp4.dojo.v4-sp.upf
     MD5 check sum: c10ed334bb677c0554edec7181ce9143
     Pseudo is Norm-conserving + core correction, Zval = 10.0
     Generated using ONCVPSP code by D. R. Hamann
     Using radial grid of 1938 points,  8 beta functions with: 
                l(1) =   0
                l(2) =   0
                l(3) =   1
                l(4) =   1
                l(5) =   2
                l(6) =   2
                l(7) =   3
                l(8) =   3

     PseudoPot. # 3 for H  read from file:
     /home/mehlhorn/pseudos/H_ONCV_PBEsol-1.0.upf
     MD5 check sum: 398ef8f67c0a7342c05c87c5e19ea467
     Pseudo is Norm-conserving, Zval =  1.0
     Generated using ONCVPSP code by D. R. Hamann
     Using radial grid of 1180 points,  2 beta functions with: 
                l(1) =   0
                l(2) =   0

     Mode symmetry, D_2  (222)  point group:


     Electric field:
     Dielectric constant
     Born effective charges in two ways 


     Atomic displacements:
     There are   66 irreducible representations

     Representation     1      1 modes -  To be done

     Representation     2      1 modes -  To be done

     Representation     3      1 modes -  To be done

     Representation     4      1 modes -  To be done

     Representation     5      1 modes -  To be done

     Representation     6      1 modes -  To be done

     Representation     7      1 modes -  To be done

     Representation     8      1 modes -  To be done

     Representation     9      1 modes -  To be done

     Representation    10      1 modes -  To be done

     Representation    11      1 modes -  To be done

     Representation    12      1 modes -  To be done

     Representation    13      1 modes -  To be done

     Representation    14      1 modes -  To be done

     Representation    15      1 modes -  To be done

     Representation    16      1 modes -  To be done

     Representation    17      1 modes -  To be done

     Representation    18      1 modes -  To be done

     Representation    19      1 modes -  To be done

     Representation    20      1 modes -  To be done

     Representation    21      1 modes -  To be done

     Representation    22      1 modes -  To be done

     Representation    23      1 modes -  To be done

     Representation    24      1 modes -  To be done

     Representation    25      1 modes -  To be done

     Representation    26      1 modes -  To be done

     Representation    27      1 modes -  To be done

     Representation    28      1 modes -  To be done

     Representation    29      1 modes -  To be done

     Representation    30      1 modes -  To be done

     Representation    31      1 modes -  To be done

     Representation    32      1 modes -  To be done

     Representation    33      1 modes -  To be done

     Representation    34      1 modes -  To be done

     Representation    35      1 modes -  To be done

     Representation    36      1 modes -  To be done

     Representation    37      1 modes -  To be done

     Representation    38      1 modes -  To be done

     Representation    39      1 modes -  To be done

     Representation    40      1 modes -  To be done

     Representation    41      1 modes -  To be done

     Representation    42      1 modes -  To be done

     Representation    43      1 modes -  To be done

     Representation    44      1 modes -  To be done

     Representation    45      1 modes -  To be done

     Representation    46      1 modes -  To be done

     Representation    47      1 modes -  To be done

     Representation    48      1 modes -  To be done

     Representation    49      1 modes -  To be done

     Representation    50      1 modes -  To be done

     Representation    51      1 modes -  To be done

     Representation    52      1 modes -  To be done

     Representation    53      1 modes -  To be done

     Representation    54      1 modes -  To be done

     Representation    55      1 modes -  To be done

     Representation    56      1 modes -  To be done

     Representation    57      1 modes -  To be done

     Representation    58      1 modes -  To be done

     Representation    59      1 modes -  To be done

     Representation    60      1 modes -  To be done

     Representation    61      1 modes -  To be done

     Representation    62      1 modes -  To be done

     Representation    63      1 modes -  To be done

     Representation    64      1 modes -  To be done

     Representation    65      1 modes -  To be done

     Representation    66      1 modes -  To be done



     Alpha used in Ewald sum =   2.8000
     PHONON       :   3m 6.04s CPU   3m10.40s WALL


     Electric Fields Calculation

      iter #   1 total cpu time :   765.0 secs   av.it.:   7.6
      thresh= 1.000E-02 alpha_mix =  0.700 |ddv_scf|^2 =  5.843E-09

      iter #   2 total cpu time :  1017.8 secs   av.it.:  16.9
      thresh= 7.644E-06 alpha_mix =  0.700 |ddv_scf|^2 =  9.556E-10

      iter #   3 total cpu time :  1261.0 secs   av.it.:  16.0
      thresh= 3.091E-06 alpha_mix =  0.700 |ddv_scf|^2 =  7.215E-11

      iter #   4 total cpu time :  1501.5 secs   av.it.:  15.7
      thresh= 8.494E-07 alpha_mix =  0.700 |ddv_scf|^2 =  9.834E-12

      iter #   5 total cpu time :  1744.8 secs   av.it.:  15.7
      thresh= 3.136E-07 alpha_mix =  0.700 |ddv_scf|^2 =  9.436E-13

      iter #   6 total cpu time :  1987.7 secs   av.it.:  15.7
      thresh= 9.714E-08 alpha_mix =  0.700 |ddv_scf|^2 =  2.332E-14

      iter #   7 total cpu time :  2231.6 secs   av.it.:  16.0
      thresh= 1.527E-08 alpha_mix =  0.700 |ddv_scf|^2 =  3.233E-15

     End of electric fields calculation

          Dielectric constant in cartesian axis 

          (       3.157855200       0.000000000       0.000000000 )
          (       0.000000000       3.218468543       0.000000000 )
          (       0.000000000       0.000000000       3.348124967 )

          Effective charges (d Force / dE) in cartesian axis without acoustic sum rule applied (asr)

           atom    1  Ba    Mean Z*:        2.66059
      Ex  (        2.50446       -0.04277        0.00000 )
      Ey  (        0.28781        2.52285       -0.00000 )
      Ez  (        0.00000        0.00000        2.95447 )
           atom    2  Ba    Mean Z*:        2.66059
      Ex  (        2.50446        0.04277        0.00000 )
      Ey  (       -0.28781        2.52285       -0.00000 )
      Ez  (        0.00000        0.00000        2.95447 )
           atom    3  B     Mean Z*:       -0.13234
      Ex  (       -0.14892        0.03259       -0.00002 )
      Ey  (        0.17488       -0.04583        0.00005 )
      Ez  (        0.00001        0.00003       -0.20226 )
           atom    4  B     Mean Z*:       -0.13234
      Ex  (       -0.14892        0.03259        0.00002 )
      Ey  (        0.17488       -0.04583       -0.00005 )
      Ez  (       -0.00001       -0.00003       -0.20226 )
           atom    5  B     Mean Z*:       -0.13234
      Ex  (       -0.14892       -0.03259        0.00002 )
      Ey  (       -0.17488       -0.04583        0.00005 )
      Ez  (       -0.00001        0.00003       -0.20226 )
           atom    6  B     Mean Z*:       -0.13234
      Ex  (       -0.14892       -0.03259       -0.00002 )
      Ey  (       -0.17488       -0.04583       -0.00005 )
      Ez  (        0.00001       -0.00003       -0.20226 )
           atom    7  H     Mean Z*:       -0.30845
      Ex  (       -0.42630        0.13516       -0.00001 )
      Ey  (        0.14249       -0.25210        0.00001 )
      Ez  (       -0.00002        0.00001       -0.24695 )
           atom    8  H     Mean Z*:       -0.30845
      Ex  (       -0.42630        0.13516        0.00001 )
      Ey  (        0.14249       -0.25210       -0.00001 )
      Ez  (        0.00002       -0.00001       -0.24695 )
           atom    9  H     Mean Z*:       -0.30845
      Ex  (       -0.42630       -0.13516        0.00001 )
      Ey  (       -0.14249       -0.25210        0.00001 )
      Ez  (        0.00002        0.00001       -0.24695 )
           atom   10  H     Mean Z*:       -0.30845
      Ex  (       -0.42630       -0.13516       -0.00001 )
      Ey  (       -0.14249       -0.25210       -0.00001 )
      Ez  (       -0.00002       -0.00001       -0.24695 )
           atom   11  H     Mean Z*:       -0.31485
      Ex  (       -0.27265       -0.04378        0.00000 )
      Ey  (       -0.11298       -0.42851       -0.00004 )
      Ez  (        0.00001       -0.00003       -0.24340 )
           atom   12  H     Mean Z*:       -0.31485
      Ex  (       -0.27265       -0.04378       -0.00000 )
      Ey  (       -0.11298       -0.42851        0.00004 )
      Ez  (       -0.00001        0.00003       -0.24340 )
           atom   13  H     Mean Z*:       -0.31485
      Ex  (       -0.27265        0.04378       -0.00000 )
      Ey  (        0.11298       -0.42851       -0.00004 )
      Ez  (       -0.00001       -0.00003       -0.24340 )
           atom   14  H     Mean Z*:       -0.31485
      Ex  (       -0.27265        0.04378        0.00000 )
      Ey  (        0.11298       -0.42851        0.00004 )
      Ez  (        0.00001        0.00003       -0.24340 )
           atom   15  H     Mean Z*:       -0.28712
      Ex  (       -0.20235        0.14531        0.05885 )
      Ey  (        0.09651       -0.26694       -0.09281 )
      Ez  (        0.01935       -0.11099       -0.39208 )
           atom   16  H     Mean Z*:       -0.28712
      Ex  (       -0.20235        0.14531       -0.05885 )
      Ey  (        0.09651       -0.26694        0.09281 )
      Ez  (       -0.01935        0.11099       -0.39208 )
           atom   17  H     Mean Z*:       -0.28712
      Ex  (       -0.20235       -0.14531       -0.05885 )
      Ey  (       -0.09651       -0.26694       -0.09281 )
      Ez  (       -0.01935       -0.11099       -0.39208 )
           atom   18  H     Mean Z*:       -0.28712
      Ex  (       -0.20235       -0.14531        0.05885 )
      Ey  (       -0.09651       -0.26694        0.09281 )
      Ez  (        0.01935        0.11099       -0.39208 )
           atom   19  H     Mean Z*:       -0.28713
      Ex  (       -0.20231        0.14529        0.05882 )
      Ey  (        0.09648       -0.26694       -0.09282 )
      Ez  (        0.01933       -0.11099       -0.39215 )
           atom   20  H     Mean Z*:       -0.28713
      Ex  (       -0.20231        0.14529       -0.05882 )
      Ey  (        0.09648       -0.26694        0.09282 )
      Ez  (       -0.01933        0.11099       -0.39215 )
           atom   21  H     Mean Z*:       -0.28713
      Ex  (       -0.20231       -0.14529       -0.05882 )
      Ey  (       -0.09648       -0.26694       -0.09282 )
      Ez  (       -0.01933       -0.11099       -0.39215 )
           atom   22  H     Mean Z*:       -0.28713
      Ex  (       -0.20231       -0.14529        0.05882 )
      Ey  (       -0.09648       -0.26694        0.09282 )
      Ez  (        0.01933        0.11099       -0.39215 )

          Effective charges Sum: Mean:        0.00159
             -0.00118        0.00000        0.00000
              0.00000        0.00439        0.00000
              0.00000       -0.00000        0.00157

          Effective charges (d Force / dE) in cartesian axis with asr applied: 
           atom    1  Ba    Mean Z*:        2.66052
      E*x (        2.50451       -0.04277       -0.00000 )
      E*y (        0.28781        2.52265        0.00000 )
      E*z (       -0.00000       -0.00000        2.95440 )
           atom    2  Ba    Mean Z*:        2.66052
      E*x (        2.50451        0.04277       -0.00000 )
      E*y (       -0.28781        2.52265       -0.00000 )
      E*z (       -0.00000       -0.00000        2.95440 )
           atom    3  B     Mean Z*:       -0.13241
      E*x (       -0.14886        0.03259       -0.00002 )
      E*y (        0.17488       -0.04603        0.00005 )
      E*z (        0.00001        0.00003       -0.20233 )
           atom    4  B     Mean Z*:       -0.13241
      E*x (       -0.14886        0.03259        0.00002 )
      E*y (        0.17488       -0.04603       -0.00005 )
      E*z (       -0.00001       -0.00003       -0.20233 )
           atom    5  B     Mean Z*:       -0.13241
      E*x (       -0.14886       -0.03259        0.00002 )
      E*y (       -0.17488       -0.04603        0.00005 )
      E*z (       -0.00001        0.00003       -0.20233 )
           atom    6  B     Mean Z*:       -0.13241
      E*x (       -0.14886       -0.03259       -0.00002 )
      E*y (       -0.17488       -0.04603       -0.00005 )
      E*z (        0.00001       -0.00003       -0.20233 )
           atom    7  H     Mean Z*:       -0.30852
      E*x (       -0.42624        0.13516       -0.00001 )
      E*y (        0.14249       -0.25230        0.00001 )
      E*z (       -0.00002        0.00001       -0.24702 )
           atom    8  H     Mean Z*:       -0.30852
      E*x (       -0.42624        0.13516        0.00001 )
      E*y (        0.14249       -0.25230       -0.00001 )
      E*z (        0.00002       -0.00001       -0.24702 )
           atom    9  H     Mean Z*:       -0.30852
      E*x (       -0.42624       -0.13516        0.00001 )
      E*y (       -0.14249       -0.25230        0.00001 )
      E*z (        0.00002        0.00001       -0.24702 )
           atom   10  H     Mean Z*:       -0.30852
      E*x (       -0.42624       -0.13516       -0.00001 )
      E*y (       -0.14249       -0.25230       -0.00001 )
      E*z (       -0.00002       -0.00001       -0.24702 )
           atom   11  H     Mean Z*:       -0.31493
      E*x (       -0.27260       -0.04378        0.00000 )
      E*y (       -0.11298       -0.42871       -0.00004 )
      E*z (        0.00001       -0.00003       -0.24347 )
           atom   12  H     Mean Z*:       -0.31493
      E*x (       -0.27260       -0.04378       -0.00000 )
      E*y (       -0.11298       -0.42871        0.00004 )
      E*z (       -0.00001        0.00003       -0.24347 )
           atom   13  H     Mean Z*:       -0.31493
      E*x (       -0.27260        0.04378       -0.00000 )
      E*y (        0.11298       -0.42871       -0.00004 )
      E*z (       -0.00001       -0.00003       -0.24347 )
           atom   14  H     Mean Z*:       -0.31493
      E*x (       -0.27260        0.04378        0.00000 )
      E*y (        0.11298       -0.42871        0.00004 )
      E*z (        0.00001        0.00003       -0.24347 )
           atom   15  H     Mean Z*:       -0.28720
      E*x (       -0.20230        0.14531        0.05885 )
      E*y (        0.09651       -0.26714       -0.09281 )
      E*z (        0.01935       -0.11099       -0.39215 )
           atom   16  H     Mean Z*:       -0.28720
      E*x (       -0.20230        0.14531       -0.05885 )
      E*y (        0.09651       -0.26714        0.09281 )
      E*z (       -0.01935        0.11099       -0.39215 )
           atom   17  H     Mean Z*:       -0.28720
      E*x (       -0.20230       -0.14531       -0.05885 )
      E*y (       -0.09651       -0.26714       -0.09281 )
      E*z (       -0.01935       -0.11099       -0.39215 )
           atom   18  H     Mean Z*:       -0.28720
      E*x (       -0.20230       -0.14531        0.05885 )
      E*y (       -0.09651       -0.26714        0.09281 )
      E*z (        0.01935        0.11099       -0.39215 )
           atom   19  H     Mean Z*:       -0.28721
      E*x (       -0.20226        0.14529        0.05882 )
      E*y (        0.09648       -0.26714       -0.09282 )
      E*z (        0.01933       -0.11099       -0.39222 )
           atom   20  H     Mean Z*:       -0.28721
      E*x (       -0.20226        0.14529       -0.05882 )
      E*y (        0.09648       -0.26714        0.09282 )
      E*z (       -0.01933        0.11099       -0.39222 )
           atom   21  H     Mean Z*:       -0.28721
      E*x (       -0.20226       -0.14529       -0.05882 )
      E*y (       -0.09648       -0.26714       -0.09282 )
      E*z (       -0.01933       -0.11099       -0.39222 )
           atom   22  H     Mean Z*:       -0.28721
      E*x (       -0.20226       -0.14529        0.05882 )
      E*y (       -0.09648       -0.26714        0.09282 )
      E*z (        0.01933        0.11099       -0.39222 )


     Representation #   1 mode #   1

     Self-consistent Calculation

      iter #   1 total cpu time :  4610.1 secs   av.it.:   3.0
      thresh= 1.000E-02 alpha_mix =  0.700 |ddv_scf|^2 =  1.820E-09

      iter #   2 total cpu time :  4689.9 secs   av.it.:  15.6
      thresh= 4.266E-06 alpha_mix =  0.700 |ddv_scf|^2 =  4.014E-10

      iter #   3 total cpu time :  4769.4 secs   av.it.:  15.0
      thresh= 2.004E-06 alpha_mix =  0.700 |ddv_scf|^2 =  2.653E-12

      iter #   4 total cpu time :  4849.3 secs   av.it.:  15.5
      thresh= 1.629E-07 alpha_mix =  0.700 |ddv_scf|^2 =  4.856E-14

      iter #   5 total cpu time :  4929.1 secs   av.it.:  15.8
      thresh= 2.204E-08 alpha_mix =  0.700 |ddv_scf|^2 =  1.924E-15

     End of self-consistent calculation

     Convergence has been achieved 


     Representation #   2 mode #   2

     Self-consistent Calculation

      iter #   1 total cpu time :  4989.1 secs   av.it.:   3.0
      thresh= 1.000E-02 alpha_mix =  0.700 |ddv_scf|^2 =  1.441E-09

      iter #   2 total cpu time :  5070.9 secs   av.it.:  15.9
      thresh= 3.796E-06 alpha_mix =  0.700 |ddv_scf|^2 =  3.758E-10

      iter #   3 total cpu time :  5150.7 secs   av.it.:  15.2
      thresh= 1.939E-06 alpha_mix =  0.700 |ddv_scf|^2 =  3.109E-12

      iter #   4 total cpu time :  5232.9 secs   av.it.:  15.9
      thresh= 1.763E-07 alpha_mix =  0.700 |ddv_scf|^2 =  1.166E-13

      iter #   5 total cpu time :  5314.6 secs   av.it.:  15.7
      thresh= 3.415E-08 alpha_mix =  0.700 |ddv_scf|^2 =  5.125E-15

     End of self-consistent calculation

     Convergence has been achieved 


     Representation #   3 mode #   3

     Self-consistent Calculation

      iter #   1 total cpu time :  5374.6 secs   av.it.:   3.0
      thresh= 1.000E-02 alpha_mix =  0.700 |ddv_scf|^2 =  5.897E-10

      iter #   2 total cpu time :  5457.0 secs   av.it.:  15.9
      thresh= 2.428E-06 alpha_mix =  0.700 |ddv_scf|^2 =  4.936E-11

      iter #   3 total cpu time :  5538.6 secs   av.it.:  15.9
      thresh= 7.026E-07 alpha_mix =  0.700 |ddv_scf|^2 =  6.050E-12

      iter #   4 total cpu time :  5617.7 secs   av.it.:  15.7
      thresh= 2.460E-07 alpha_mix =  0.700 |ddv_scf|^2 =  9.837E-14

      iter #   5 total cpu time :  5698.8 secs   av.it.:  15.6
      thresh= 3.136E-08 alpha_mix =  0.700 |ddv_scf|^2 =  3.349E-15

     End of self-consistent calculation

     Convergence has been achieved 


     Representation #   4 mode #   4

     Self-consistent Calculation

      iter #   1 total cpu time :  5765.0 secs   av.it.:   5.0
      thresh= 1.000E-02 alpha_mix =  0.700 |ddv_scf|^2 =  1.199E-08

      iter #   2 total cpu time :  5847.1 secs   av.it.:  15.8
      thresh= 1.095E-05 alpha_mix =  0.700 |ddv_scf|^2 =  2.569E-09

      iter #   3 total cpu time :  5925.9 secs   av.it.:  15.0
      thresh= 5.068E-06 alpha_mix =  0.700 |ddv_scf|^2 =  2.016E-11

      iter #   4 total cpu time :  6005.4 secs   av.it.:  15.6
      thresh= 4.489E-07 alpha_mix =  0.700 |ddv_scf|^2 =  1.379E-12

      iter #   5 total cpu time :  6085.1 secs   av.it.:  15.6
      thresh= 1.174E-07 alpha_mix =  0.700 |ddv_scf|^2 =  1.831E-14

      iter #   6 total cpu time :  6165.3 secs   av.it.:  15.9
      thresh= 1.353E-08 alpha_mix =  0.700 |ddv_scf|^2 =  2.057E-16

     End of self-consistent calculation

     Convergence has been achieved 


     Representation #   5 mode #   5

     Self-consistent Calculation

      iter #   1 total cpu time :  6255.4 secs   av.it.:   6.5
      thresh= 1.000E-02 alpha_mix =  0.700 |ddv_scf|^2 =  6.074E-08

      iter #   2 total cpu time :  6334.6 secs   av.it.:  15.3
      thresh= 2.464E-05 alpha_mix =  0.700 |ddv_scf|^2 =  1.703E-08

      iter #   3 total cpu time :  6412.5 secs   av.it.:  14.5
      thresh= 1.305E-05 alpha_mix =  0.700 |ddv_scf|^2 =  3.264E-11

      iter #   4 total cpu time :  6492.2 secs   av.it.:  15.2
      thresh= 5.713E-07 alpha_mix =  0.700 |ddv_scf|^2 =  1.165E-12

      iter #   5 total cpu time :  6570.9 secs   av.it.:  14.7
      thresh= 1.079E-07 alpha_mix =  0.700 |ddv_scf|^2 =  1.100E-14

      iter #   6 total cpu time :  6649.8 secs   av.it.:  14.7
      thresh= 1.049E-08 alpha_mix =  0.700 |ddv_scf|^2 =  2.111E-16

     End of self-consistent calculation

     Convergence has been achieved 


     Representation #   6 mode #   6

     Self-consistent Calculation

      iter #   1 total cpu time :  6715.3 secs   av.it.:   3.1
      thresh= 1.000E-02 alpha_mix =  0.700 |ddv_scf|^2 =  1.706E-09

      iter #   2 total cpu time :  6799.1 secs   av.it.:  15.9
      thresh= 4.130E-06 alpha_mix =  0.700 |ddv_scf|^2 =  4.620E-10

      iter #   3 total cpu time :  6880.9 secs   av.it.:  15.4
      thresh= 2.149E-06 alpha_mix =  0.700 |ddv_scf|^2 =  4.279E-12

      iter #   4 total cpu time :  6962.6 secs   av.it.:  15.5
      thresh= 2.068E-07 alpha_mix =  0.700 |ddv_scf|^2 =  2.148E-13

      iter #   5 total cpu time :  7043.4 secs   av.it.:  15.5
      thresh= 4.634E-08 alpha_mix =  0.700 |ddv_scf|^2 =  4.745E-15

     End of self-consistent calculation

     Convergence has been achieved 


     Representation #   7 mode #   7

     Self-consistent Calculation

      iter #   1 total cpu time :  7102.2 secs   av.it.:   3.0
      thresh= 1.000E-02 alpha_mix =  0.700 |ddv_scf|^2 =  1.391E-09

      iter #   2 total cpu time :  7182.5 secs   av.it.:  15.4
      thresh= 3.729E-06 alpha_mix =  0.700 |ddv_scf|^2 =  1.264E-10

      iter #   3 total cpu time :  7262.5 secs   av.it.:  15.3
      thresh= 1.124E-06 alpha_mix =  0.700 |ddv_scf|^2 =  1.210E-12

      iter #   4 total cpu time :  7344.3 secs   av.it.:  15.9
      thresh= 1.100E-07 alpha_mix =  0.700 |ddv_scf|^2 =  7.979E-14

      iter #   5 total cpu time :  7426.1 secs   av.it.:  15.9
      thresh= 2.825E-08 alpha_mix =  0.700 |ddv_scf|^2 =  5.901E-15

     End of self-consistent calculation

     Convergence has been achieved 


     Representation #   8 mode #   8

     Self-consistent Calculation

      iter #   1 total cpu time :  7485.3 secs   av.it.:   3.0
      thresh= 1.000E-02 alpha_mix =  0.700 |ddv_scf|^2 =  8.799E-10

      iter #   2 total cpu time :  7567.4 secs   av.it.:  15.5
      thresh= 2.966E-06 alpha_mix =  0.700 |ddv_scf|^2 =  7.401E-11

      iter #   3 total cpu time :  7649.3 secs   av.it.:  15.7
      thresh= 8.603E-07 alpha_mix =  0.700 |ddv_scf|^2 =  2.139E-12

      iter #   4 total cpu time :  7731.2 secs   av.it.:  15.9
      thresh= 1.462E-07 alpha_mix =  0.700 |ddv_scf|^2 =  1.746E-13

      iter #   5 total cpu time :  7812.2 secs   av.it.:  15.7
      thresh= 4.179E-08 alpha_mix =  0.700 |ddv_scf|^2 =  5.751E-15

     End of self-consistent calculation

     Convergence has been achieved 


     Representation #   9 mode #   9

     Self-consistent Calculation

      iter #   1 total cpu time :  7878.4 secs   av.it.:   4.9
      thresh= 1.000E-02 alpha_mix =  0.700 |ddv_scf|^2 =  7.984E-09

      iter #   2 total cpu time :  7960.4 secs   av.it.:  16.0
      thresh= 8.936E-06 alpha_mix =  0.700 |ddv_scf|^2 =  1.212E-09

      iter #   3 total cpu time :  8040.4 secs   av.it.:  15.4
      thresh= 3.481E-06 alpha_mix =  0.700 |ddv_scf|^2 =  2.274E-11

      iter #   4 total cpu time :  8120.8 secs   av.it.:  15.8
      thresh= 4.769E-07 alpha_mix =  0.700 |ddv_scf|^2 =  1.615E-12

      iter #   5 total cpu time :  8200.7 secs   av.it.:  15.8
      thresh= 1.271E-07 alpha_mix =  0.700 |ddv_scf|^2 =  3.080E-14

      iter #   6 total cpu time :  8281.7 secs   av.it.:  15.9
      thresh= 1.755E-08 alpha_mix =  0.700 |ddv_scf|^2 =  2.291E-16

     End of self-consistent calculation

     Convergence has been achieved 


     Representation #  10 mode #  10

     Self-consistent Calculation

      iter #   1 total cpu time :  8357.2 secs   av.it.:   3.0
      thresh= 1.000E-02 alpha_mix =  0.700 |ddv_scf|^2 =  1.080E-09

      iter #   2 total cpu time :  8438.1 secs   av.it.:  15.9
      thresh= 3.287E-06 alpha_mix =  0.700 |ddv_scf|^2 =  1.105E-10

      iter #   3 total cpu time :  8519.7 secs   av.it.:  15.9
      thresh= 1.051E-06 alpha_mix =  0.700 |ddv_scf|^2 =  4.051E-12

      iter #   4 total cpu time :  8601.3 secs   av.it.:  15.9
      thresh= 2.013E-07 alpha_mix =  0.700 |ddv_scf|^2 =  1.702E-13

      iter #   5 total cpu time :  8681.5 secs   av.it.:  15.8
      thresh= 4.126E-08 alpha_mix =  0.700 |ddv_scf|^2 =  6.360E-15

     End of self-consistent calculation

     Convergence has been achieved 


     Representation #  11 mode #  11

     Self-consistent Calculation

      iter #   1 total cpu time :  8740.9 secs   av.it.:   3.0
      thresh= 1.000E-02 alpha_mix =  0.700 |ddv_scf|^2 =  8.929E-10

      iter #   2 total cpu time :  8822.6 secs   av.it.:  15.9
      thresh= 2.988E-06 alpha_mix =  0.700 |ddv_scf|^2 =  1.622E-10

      iter #   3 total cpu time :  8901.0 secs   av.it.:  15.6
      thresh= 1.274E-06 alpha_mix =  0.700 |ddv_scf|^2 =  6.411E-12

      iter #   4 total cpu time :  8980.6 secs   av.it.:  15.6
      thresh= 2.532E-07 alpha_mix =  0.700 |ddv_scf|^2 =  1.048E-13

      iter #   5 total cpu time :  9057.5 secs   av.it.:  15.4
      thresh= 3.238E-08 alpha_mix =  0.700 |ddv_scf|^2 =  4.175E-15

     End of self-consistent calculation

     Convergence has been achieved 


     Representation #  12 mode #  12

     Self-consistent Calculation

      iter #   1 total cpu time :  9117.3 secs   av.it.:   3.0
      thresh= 1.000E-02 alpha_mix =  0.700 |ddv_scf|^2 =  8.110E-10

      iter #   2 total cpu time :  9200.0 secs   av.it.:  15.9
      thresh= 2.848E-06 alpha_mix =  0.700 |ddv_scf|^2 =  1.186E-10

      iter #   3 total cpu time :  9281.4 secs   av.it.:  15.9
      thresh= 1.089E-06 alpha_mix =  0.700 |ddv_scf|^2 =  4.290E-12

      iter #   4 total cpu time :  9364.0 secs   av.it.:  15.9
      thresh= 2.071E-07 alpha_mix =  0.700 |ddv_scf|^2 =  2.803E-13

      iter #   5 total cpu time :  9444.3 secs   av.it.:  15.5
      thresh= 5.294E-08 alpha_mix =  0.700 |ddv_scf|^2 =  5.453E-15

     End of self-consistent calculation

     Convergence has been achieved 


     Representation #  13 mode #  13

     Self-consistent Calculation

      iter #   1 total cpu time :  9504.4 secs   av.it.:   3.5
      thresh= 1.000E-02 alpha_mix =  0.700 |ddv_scf|^2 =  1.776E-09

      iter #   2 total cpu time :  9586.0 secs   av.it.:  15.8
      thresh= 4.214E-06 alpha_mix =  0.700 |ddv_scf|^2 =  5.634E-10

      iter #   3 total cpu time :  9665.0 secs   av.it.:  15.0
      thresh= 2.374E-06 alpha_mix =  0.700 |ddv_scf|^2 =  1.751E-12

      iter #   4 total cpu time :  9741.9 secs   av.it.:  15.7
      thresh= 1.323E-07 alpha_mix =  0.700 |ddv_scf|^2 =  5.506E-14

      iter #   5 total cpu time :  9820.6 secs   av.it.:  15.6
      thresh= 2.346E-08 alpha_mix =  0.700 |ddv_scf|^2 =  2.565E-15

     End of self-consistent calculation

     Convergence has been achieved 


     Representation #  14 mode #  14

     Self-consistent Calculation

      iter #   1 total cpu time :  9885.6 secs   av.it.:   4.1
      thresh= 1.000E-02 alpha_mix =  0.700 |ddv_scf|^2 =  1.029E-08

      iter #   2 total cpu time :  9966.6 secs   av.it.:  15.3
      thresh= 1.014E-05 alpha_mix =  0.700 |ddv_scf|^2 =  1.346E-09

      iter #   3 total cpu time : 10045.9 secs   av.it.:  15.0
      thresh= 3.669E-06 alpha_mix =  0.700 |ddv_scf|^2 =  1.105E-11

      iter #   4 total cpu time : 10128.3 secs   av.it.:  15.7
      thresh= 3.325E-07 alpha_mix =  0.700 |ddv_scf|^2 =  1.567E-12

      iter #   5 total cpu time : 10209.5 secs   av.it.:  15.6
      thresh= 1.252E-07 alpha_mix =  0.700 |ddv_scf|^2 =  7.452E-14

      iter #   6 total cpu time : 10290.9 secs   av.it.:  15.4
      thresh= 2.730E-08 alpha_mix =  0.700 |ddv_scf|^2 =  1.716E-16

     End of self-consistent calculation

     Convergence has been achieved 


     Representation #  15 mode #  15

     Self-consistent Calculation

      iter #   1 total cpu time : 10367.4 secs   av.it.:   3.0
      thresh= 1.000E-02 alpha_mix =  0.700 |ddv_scf|^2 =  1.634E-09

      iter #   2 total cpu time : 10449.9 secs   av.it.:  15.9
      thresh= 4.042E-06 alpha_mix =  0.700 |ddv_scf|^2 =  3.185E-10

      iter #   3 total cpu time : 10530.6 secs   av.it.:  15.6
      thresh= 1.785E-06 alpha_mix =  0.700 |ddv_scf|^2 =  3.621E-12

      iter #   4 total cpu time : 10613.4 secs   av.it.:  15.9
      thresh= 1.903E-07 alpha_mix =  0.700 |ddv_scf|^2 =  1.350E-13

      iter #   5 total cpu time : 10696.6 secs   av.it.:  15.8
      thresh= 3.675E-08 alpha_mix =  0.700 |ddv_scf|^2 =  4.871E-15

     End of self-consistent calculation

     Convergence has been achieved 


     Representation #  16 mode #  16

     Self-consistent Calculation

      iter #   1 total cpu time : 10757.5 secs   av.it.:   3.1
      thresh= 1.000E-02 alpha_mix =  0.700 |ddv_scf|^2 =  1.675E-09

      iter #   2 total cpu time : 10841.6 secs   av.it.:  15.9
      thresh= 4.092E-06 alpha_mix =  0.700 |ddv_scf|^2 =  5.402E-10

      iter #   3 total cpu time : 10922.8 secs   av.it.:  15.0
      thresh= 2.324E-06 alpha_mix =  0.700 |ddv_scf|^2 =  1.755E-12

      iter #   4 total cpu time : 11007.6 secs   av.it.:  15.9
      thresh= 1.325E-07 alpha_mix =  0.700 |ddv_scf|^2 =  4.510E-14

      iter #   5 total cpu time : 11089.7 secs   av.it.:  15.7
      thresh= 2.124E-08 alpha_mix =  0.700 |ddv_scf|^2 =  2.920E-15

     End of self-consistent calculation

     Convergence has been achieved 


     Representation #  17 mode #  17

     Self-consistent Calculation

      iter #   1 total cpu time : 11156.3 secs   av.it.:   5.0
      thresh= 1.000E-02 alpha_mix =  0.700 |ddv_scf|^2 =  1.356E-08

      iter #   2 total cpu time : 11239.4 secs   av.it.:  15.8
      thresh= 1.164E-05 alpha_mix =  0.700 |ddv_scf|^2 =  5.526E-09

      iter #   3 total cpu time : 11318.6 secs   av.it.:  14.9
      thresh= 7.434E-06 alpha_mix =  0.700 |ddv_scf|^2 =  1.052E-10

      iter #   4 total cpu time : 11399.4 secs   av.it.:  15.0
      thresh= 1.026E-06 alpha_mix =  0.700 |ddv_scf|^2 =  6.879E-12

      iter #   5 total cpu time : 11479.9 secs   av.it.:  15.1
      thresh= 2.623E-07 alpha_mix =  0.700 |ddv_scf|^2 =  5.393E-13

      iter #   6 total cpu time : 11559.5 secs   av.it.:  15.0
      thresh= 7.343E-08 alpha_mix =  0.700 |ddv_scf|^2 =  1.923E-14

      iter #   7 total cpu time : 11642.2 secs   av.it.:  15.9
      thresh= 1.387E-08 alpha_mix =  0.700 |ddv_scf|^2 =  3.620E-15

     End of self-consistent calculation

     Convergence has been achieved 


     Representation #  18 mode #  18

     Self-consistent Calculation

      iter #   1 total cpu time : 11720.2 secs   av.it.:   3.1
      thresh= 1.000E-02 alpha_mix =  0.700 |ddv_scf|^2 =  3.894E-09

      iter #   2 total cpu time : 11800.7 secs   av.it.:  15.5
      thresh= 6.241E-06 alpha_mix =  0.700 |ddv_scf|^2 =  2.314E-09

      iter #   3 total cpu time : 11877.2 secs   av.it.:  14.7
      thresh= 4.810E-06 alpha_mix =  0.700 |ddv_scf|^2 =  5.201E-12

      iter #   4 total cpu time : 11957.6 secs   av.it.:  15.7
      thresh= 2.281E-07 alpha_mix =  0.700 |ddv_scf|^2 =  1.104E-12

      iter #   5 total cpu time : 12034.1 secs   av.it.:  14.9
      thresh= 1.051E-07 alpha_mix =  0.700 |ddv_scf|^2 =  7.712E-14

      iter #   6 total cpu time : 12112.7 secs   av.it.:  15.0
      thresh= 2.777E-08 alpha_mix =  0.700 |ddv_scf|^2 =  3.317E-15

     End of self-consistent calculation

     Convergence has been achieved 


     Representation #  19 mode #  19

     Self-consistent Calculation

      iter #   1 total cpu time : 12172.8 secs   av.it.:   3.0
      thresh= 1.000E-02 alpha_mix =  0.700 |ddv_scf|^2 =  1.019E-09

      iter #   2 total cpu time : 12255.4 secs   av.it.:  15.9
      thresh= 3.193E-06 alpha_mix =  0.700 |ddv_scf|^2 =  2.225E-10

      iter #   3 total cpu time : 12336.1 secs   av.it.:  15.6
      thresh= 1.492E-06 alpha_mix =  0.700 |ddv_scf|^2 =  1.211E-11

      iter #   4 total cpu time : 12415.4 secs   av.it.:  15.0
      thresh= 3.480E-07 alpha_mix =  0.700 |ddv_scf|^2 =  5.758E-13

      iter #   5 total cpu time : 12495.5 secs   av.it.:  15.6
      thresh= 7.588E-08 alpha_mix =  0.700 |ddv_scf|^2 =  1.094E-14

      iter #   6 total cpu time : 12577.4 secs   av.it.:  15.8
      thresh= 1.046E-08 alpha_mix =  0.700 |ddv_scf|^2 =  1.778E-15

     End of self-consistent calculation

     Convergence has been achieved 


     Representation #  20 mode #  20

     Self-consistent Calculation

      iter #   1 total cpu time : 12639.3 secs   av.it.:   3.9
      thresh= 1.000E-02 alpha_mix =  0.700 |ddv_scf|^2 =  6.764E-09

      iter #   2 total cpu time : 12719.5 secs   av.it.:  15.3
      thresh= 8.224E-06 alpha_mix =  0.700 |ddv_scf|^2 =  4.412E-09

      iter #   3 total cpu time : 12795.1 secs   av.it.:  14.7
      thresh= 6.642E-06 alpha_mix =  0.700 |ddv_scf|^2 =  1.381E-11

      iter #   4 total cpu time : 12872.3 secs   av.it.:  14.9
      thresh= 3.716E-07 alpha_mix =  0.700 |ddv_scf|^2 =  1.091E-12

      iter #   5 total cpu time : 12952.0 secs   av.it.:  15.2
      thresh= 1.044E-07 alpha_mix =  0.700 |ddv_scf|^2 =  1.037E-13

      iter #   6 total cpu time : 13029.7 secs   av.it.:  14.9
      thresh= 3.221E-08 alpha_mix =  0.700 |ddv_scf|^2 =  7.303E-15

     End of self-consistent calculation

     Convergence has been achieved 


     Representation #  21 mode #  21

     Self-consistent Calculation

      iter #   1 total cpu time : 13089.4 secs   av.it.:   3.0
      thresh= 1.000E-02 alpha_mix =  0.700 |ddv_scf|^2 =  6.471E-09

      iter #   2 total cpu time : 13169.4 secs   av.it.:  15.4
      thresh= 8.044E-06 alpha_mix =  0.700 |ddv_scf|^2 =  4.449E-09

      iter #   3 total cpu time : 13246.0 secs   av.it.:  14.8
      thresh= 6.670E-06 alpha_mix =  0.700 |ddv_scf|^2 =  5.424E-12

      iter #   4 total cpu time : 13327.4 secs   av.it.:  15.9
      thresh= 2.329E-07 alpha_mix =  0.700 |ddv_scf|^2 =  1.159E-12

      iter #   5 total cpu time : 13406.7 secs   av.it.:  15.4
      thresh= 1.076E-07 alpha_mix =  0.700 |ddv_scf|^2 =  7.739E-14

      iter #   6 total cpu time : 13484.8 secs   av.it.:  15.2
      thresh= 2.782E-08 alpha_mix =  0.700 |ddv_scf|^2 =  2.880E-15

     End of self-consistent calculation

     Convergence has been achieved 


     Representation #  22 mode #  22

     Self-consistent Calculation

      iter #   1 total cpu time : 13557.3 secs   av.it.:   6.4
      thresh= 1.000E-02 alpha_mix =  0.700 |ddv_scf|^2 =  3.973E-08

      iter #   2 total cpu time : 13634.9 secs   av.it.:  15.3
      thresh= 1.993E-05 alpha_mix =  0.700 |ddv_scf|^2 =  6.279E-09

      iter #   3 total cpu time : 13712.8 secs   av.it.:  14.9
      thresh= 7.924E-06 alpha_mix =  0.700 |ddv_scf|^2 =  3.048E-11

      iter #   4 total cpu time : 13791.3 secs   av.it.:  14.8
      thresh= 5.521E-07 alpha_mix =  0.700 |ddv_scf|^2 =  2.156E-13

      iter #   5 total cpu time : 13871.8 secs   av.it.:  15.4
      thresh= 4.644E-08 alpha_mix =  0.700 |ddv_scf|^2 =  8.041E-15

     End of self-consistent calculation

     Convergence has been achieved 


     Representation #  23 mode #  23

     Self-consistent Calculation

      iter #   1 total cpu time : 13935.7 secs   av.it.:   3.0
      thresh= 1.000E-02 alpha_mix =  0.700 |ddv_scf|^2 =  4.268E-09

      iter #   2 total cpu time : 14013.6 secs   av.it.:  15.0
      thresh= 6.533E-06 alpha_mix =  0.700 |ddv_scf|^2 =  2.169E-09

      iter #   3 total cpu time : 14089.9 secs   av.it.:  14.6
      thresh= 4.657E-06 alpha_mix =  0.700 |ddv_scf|^2 =  1.896E-11

      iter #   4 total cpu time : 14168.2 secs   av.it.:  15.0
      thresh= 4.354E-07 alpha_mix =  0.700 |ddv_scf|^2 =  1.474E-12

      iter #   5 total cpu time : 14246.3 secs   av.it.:  14.9
      thresh= 1.214E-07 alpha_mix =  0.700 |ddv_scf|^2 =  2.887E-14

      iter #   6 total cpu time : 14327.7 secs   av.it.:  15.8
      thresh= 1.699E-08 alpha_mix =  0.700 |ddv_scf|^2 =  5.231E-15

     End of self-consistent calculation

     Convergence has been achieved 


     Representation #  24 mode #  24

     Self-consistent Calculation

      iter #   1 total cpu time : 14386.6 secs   av.it.:   3.0
      thresh= 1.000E-02 alpha_mix =  0.700 |ddv_scf|^2 =  7.087E-10

      iter #   2 total cpu time : 14467.1 secs   av.it.:  15.7
      thresh= 2.662E-06 alpha_mix =  0.700 |ddv_scf|^2 =  9.675E-11

      iter #   3 total cpu time : 14547.1 secs   av.it.:  15.5
      thresh= 9.836E-07 alpha_mix =  0.700 |ddv_scf|^2 =  1.026E-11

      iter #   4 total cpu time : 14625.0 secs   av.it.:  14.9
      thresh= 3.203E-07 alpha_mix =  0.700 |ddv_scf|^2 =  7.218E-13

      iter #   5 total cpu time : 14704.2 secs   av.it.:  15.0
      thresh= 8.496E-08 alpha_mix =  0.700 |ddv_scf|^2 =  1.276E-14

      iter #   6 total cpu time : 14784.8 secs   av.it.:  15.3
      thresh= 1.129E-08 alpha_mix =  0.700 |ddv_scf|^2 =  1.519E-15

     End of self-consistent calculation

     Convergence has been achieved 


     Representation #  25 mode #  25

     Self-consistent Calculation

      iter #   1 total cpu time : 14845.4 secs   av.it.:   3.1
      thresh= 1.000E-02 alpha_mix =  0.700 |ddv_scf|^2 =  5.267E-09

      iter #   2 total cpu time : 14926.9 secs   av.it.:  15.7
      thresh= 7.257E-06 alpha_mix =  0.700 |ddv_scf|^2 =  2.995E-09

      iter #   3 total cpu time : 15004.9 secs   av.it.:  14.9
      thresh= 5.473E-06 alpha_mix =  0.700 |ddv_scf|^2 =  1.966E-11

      iter #   4 total cpu time : 15084.2 secs   av.it.:  15.0
      thresh= 4.434E-07 alpha_mix =  0.700 |ddv_scf|^2 =  1.275E-12

      iter #   5 total cpu time : 15164.6 secs   av.it.:  15.2
      thresh= 1.129E-07 alpha_mix =  0.700 |ddv_scf|^2 =  7.174E-14

      iter #   6 total cpu time : 15242.3 secs   av.it.:  15.0
      thresh= 2.678E-08 alpha_mix =  0.700 |ddv_scf|^2 =  7.884E-15

     End of self-consistent calculation

     Convergence has been achieved 


     Representation #  26 mode #  26

     Self-consistent Calculation

      iter #   1 total cpu time : 15300.9 secs   av.it.:   3.0
      thresh= 1.000E-02 alpha_mix =  0.700 |ddv_scf|^2 =  4.190E-09

      iter #   2 total cpu time : 15377.3 secs   av.it.:  15.0
      thresh= 6.473E-06 alpha_mix =  0.700 |ddv_scf|^2 =  1.416E-09

      iter #   3 total cpu time : 15452.7 secs   av.it.:  14.7
      thresh= 3.763E-06 alpha_mix =  0.700 |ddv_scf|^2 =  1.456E-11

      iter #   4 total cpu time : 15531.2 secs   av.it.:  15.0
      thresh= 3.816E-07 alpha_mix =  0.700 |ddv_scf|^2 =  1.966E-12

      iter #   5 total cpu time : 15609.0 secs   av.it.:  14.9
      thresh= 1.402E-07 alpha_mix =  0.700 |ddv_scf|^2 =  1.977E-14

      iter #   6 total cpu time : 15688.0 secs   av.it.:  15.4
      thresh= 1.406E-08 alpha_mix =  0.700 |ddv_scf|^2 =  4.235E-15

     End of self-consistent calculation

     Convergence has been achieved 


     Representation #  27 mode #  27

     Self-consistent Calculation

      iter #   1 total cpu time : 15754.9 secs   av.it.:   5.0
      thresh= 1.000E-02 alpha_mix =  0.700 |ddv_scf|^2 =  5.158E-08

      iter #   2 total cpu time : 15833.7 secs   av.it.:  14.9
      thresh= 2.271E-05 alpha_mix =  0.700 |ddv_scf|^2 =  3.299E-08

      iter #   3 total cpu time : 15908.6 secs   av.it.:  14.1
      thresh= 1.816E-05 alpha_mix =  0.700 |ddv_scf|^2 =  1.670E-10

      iter #   4 total cpu time : 15986.9 secs   av.it.:  15.0
      thresh= 1.292E-06 alpha_mix =  0.700 |ddv_scf|^2 =  6.128E-12

      iter #   5 total cpu time : 16064.8 secs   av.it.:  15.0
      thresh= 2.476E-07 alpha_mix =  0.700 |ddv_scf|^2 =  1.282E-13

      iter #   6 total cpu time : 16145.7 secs   av.it.:  15.8
      thresh= 3.580E-08 alpha_mix =  0.700 |ddv_scf|^2 =  1.185E-14

      iter #   7 total cpu time : 16225.2 secs   av.it.:  15.2
      thresh= 1.089E-08 alpha_mix =  0.700 |ddv_scf|^2 =  9.532E-16

     End of self-consistent calculation

     Convergence has been achieved 


     Representation #  28 mode #  28

     Self-consistent Calculation

      iter #   1 total cpu time : 16302.2 secs   av.it.:   3.0
      thresh= 1.000E-02 alpha_mix =  0.700 |ddv_scf|^2 =  8.907E-09

      iter #   2 total cpu time : 16380.1 secs   av.it.:  15.0
      thresh= 9.438E-06 alpha_mix =  0.700 |ddv_scf|^2 =  6.756E-09

      iter #   3 total cpu time : 16453.6 secs   av.it.:  14.0
      thresh= 8.220E-06 alpha_mix =  0.700 |ddv_scf|^2 =  3.963E-12

      iter #   4 total cpu time : 16534.8 secs   av.it.:  15.5
      thresh= 1.991E-07 alpha_mix =  0.700 |ddv_scf|^2 =  9.010E-13

      iter #   5 total cpu time : 16613.7 secs   av.it.:  14.9
      thresh= 9.492E-08 alpha_mix =  0.700 |ddv_scf|^2 =  1.083E-14

      iter #   6 total cpu time : 16693.9 secs   av.it.:  15.0
      thresh= 1.041E-08 alpha_mix =  0.700 |ddv_scf|^2 =  6.035E-16

     End of self-consistent calculation

     Convergence has been achieved 


     Representation #  29 mode #  29

     Self-consistent Calculation

      iter #   1 total cpu time : 16755.8 secs   av.it.:   3.9
      thresh= 1.000E-02 alpha_mix =  0.700 |ddv_scf|^2 =  4.709E-09

      iter #   2 total cpu time : 16836.7 secs   av.it.:  15.7
      thresh= 6.863E-06 alpha_mix =  0.700 |ddv_scf|^2 =  2.960E-09

      iter #   3 total cpu time : 16912.6 secs   av.it.:  14.9
      thresh= 5.441E-06 alpha_mix =  0.700 |ddv_scf|^2 =  3.637E-12

      iter #   4 total cpu time : 16993.1 secs   av.it.:  15.6
      thresh= 1.907E-07 alpha_mix =  0.700 |ddv_scf|^2 =  1.125E-12

      iter #   5 total cpu time : 17070.8 secs   av.it.:  15.0
      thresh= 1.061E-07 alpha_mix =  0.700 |ddv_scf|^2 =  5.124E-14

      iter #   6 total cpu time : 17149.5 secs   av.it.:  15.0
      thresh= 2.264E-08 alpha_mix =  0.700 |ddv_scf|^2 =  4.346E-15

     End of self-consistent calculation

     Convergence has been achieved 


     Representation #  30 mode #  30

     Self-consistent Calculation

      iter #   1 total cpu time : 17214.9 secs   av.it.:   5.0
      thresh= 1.000E-02 alpha_mix =  0.700 |ddv_scf|^2 =  5.028E-08

      iter #   2 total cpu time : 17291.4 secs   av.it.:  15.0
      thresh= 2.242E-05 alpha_mix =  0.700 |ddv_scf|^2 =  3.785E-08

      iter #   3 total cpu time : 17367.0 secs   av.it.:  14.1
      thresh= 1.946E-05 alpha_mix =  0.700 |ddv_scf|^2 =  7.836E-11

      iter #   4 total cpu time : 17447.4 secs   av.it.:  15.0
      thresh= 8.852E-07 alpha_mix =  0.700 |ddv_scf|^2 =  7.389E-12

      iter #   5 total cpu time : 17527.4 secs   av.it.:  15.0
      thresh= 2.718E-07 alpha_mix =  0.700 |ddv_scf|^2 =  3.845E-13

      iter #   6 total cpu time : 17608.1 secs   av.it.:  15.7
      thresh= 6.201E-08 alpha_mix =  0.700 |ddv_scf|^2 =  3.490E-14

      iter #   7 total cpu time : 17688.5 secs   av.it.:  15.4
      thresh= 1.868E-08 alpha_mix =  0.700 |ddv_scf|^2 =  2.269E-15

     End of self-consistent calculation

     Convergence has been achieved 


     Representation #  31 mode #  31

     Self-consistent Calculation

      iter #   1 total cpu time : 17765.5 secs   av.it.:   3.0
      thresh= 1.000E-02 alpha_mix =  0.700 |ddv_scf|^2 =  6.652E-09

      iter #   2 total cpu time : 17843.4 secs   av.it.:  15.0
      thresh= 8.156E-06 alpha_mix =  0.700 |ddv_scf|^2 =  3.519E-09

      iter #   3 total cpu time : 17920.1 secs   av.it.:  14.5
      thresh= 5.932E-06 alpha_mix =  0.700 |ddv_scf|^2 =  1.377E-11

      iter #   4 total cpu time : 17999.4 secs   av.it.:  15.0
      thresh= 3.710E-07 alpha_mix =  0.700 |ddv_scf|^2 =  1.805E-12

      iter #   5 total cpu time : 18075.9 secs   av.it.:  14.7
      thresh= 1.344E-07 alpha_mix =  0.700 |ddv_scf|^2 =  6.074E-14

      iter #   6 total cpu time : 18154.8 secs   av.it.:  15.0
      thresh= 2.465E-08 alpha_mix =  0.700 |ddv_scf|^2 =  8.415E-15

     End of self-consistent calculation

     Convergence has been achieved 


     Representation #  32 mode #  32

     Self-consistent Calculation

      iter #   1 total cpu time : 18216.1 secs   av.it.:   3.5
      thresh= 1.000E-02 alpha_mix =  0.700 |ddv_scf|^2 =  2.770E-09

      iter #   2 total cpu time : 18298.5 secs   av.it.:  15.9
      thresh= 5.263E-06 alpha_mix =  0.700 |ddv_scf|^2 =  1.647E-09

      iter #   3 total cpu time : 18377.4 secs   av.it.:  14.9
      thresh= 4.059E-06 alpha_mix =  0.700 |ddv_scf|^2 =  8.256E-12

      iter #   4 total cpu time : 18457.3 secs   av.it.:  14.9
      thresh= 2.873E-07 alpha_mix =  0.700 |ddv_scf|^2 =  1.016E-12

      iter #   5 total cpu time : 18537.7 secs   av.it.:  15.0
      thresh= 1.008E-07 alpha_mix =  0.700 |ddv_scf|^2 =  8.379E-14

      iter #   6 total cpu time : 18617.5 secs   av.it.:  15.0
      thresh= 2.895E-08 alpha_mix =  0.700 |ddv_scf|^2 =  7.779E-15

     End of self-consistent calculation

     Convergence has been achieved 


     Representation #  33 mode #  33

     Self-consistent Calculation

      iter #   1 total cpu time : 18679.0 secs   av.it.:   3.6
      thresh= 1.000E-02 alpha_mix =  0.700 |ddv_scf|^2 =  4.607E-09

      iter #   2 total cpu time : 18761.6 secs   av.it.:  15.8
      thresh= 6.787E-06 alpha_mix =  0.700 |ddv_scf|^2 =  3.490E-09

      iter #   3 total cpu time : 18839.5 secs   av.it.:  14.9
      thresh= 5.907E-06 alpha_mix =  0.700 |ddv_scf|^2 =  6.016E-12

      iter #   4 total cpu time : 18922.8 secs   av.it.:  15.9
      thresh= 2.453E-07 alpha_mix =  0.700 |ddv_scf|^2 =  4.630E-13

      iter #   5 total cpu time : 19005.8 secs   av.it.:  15.9
      thresh= 6.805E-08 alpha_mix =  0.700 |ddv_scf|^2 =  1.843E-14

      iter #   6 total cpu time : 19087.4 secs   av.it.:  15.8
      thresh= 1.358E-08 alpha_mix =  0.700 |ddv_scf|^2 =  1.045E-15

     End of self-consistent calculation

     Convergence has been achieved 


     Representation #  34 mode #  34

     Self-consistent Calculation

      iter #   1 total cpu time : 19146.5 secs   av.it.:   3.0
      thresh= 1.000E-02 alpha_mix =  0.700 |ddv_scf|^2 =  7.786E-10

      iter #   2 total cpu time : 19228.1 secs   av.it.:  15.7
      thresh= 2.790E-06 alpha_mix =  0.700 |ddv_scf|^2 =  7.017E-11

      iter #   3 total cpu time : 19309.0 secs   av.it.:  15.4
      thresh= 8.377E-07 alpha_mix =  0.700 |ddv_scf|^2 =  4.815E-12

      iter #   4 total cpu time : 19388.9 secs   av.it.:  15.1
      thresh= 2.194E-07 alpha_mix =  0.700 |ddv_scf|^2 =  4.719E-13

      iter #   5 total cpu time : 19468.4 secs   av.it.:  15.0
      thresh= 6.870E-08 alpha_mix =  0.700 |ddv_scf|^2 =  1.859E-14

      iter #   6 total cpu time : 19549.3 secs   av.it.:  15.8
      thresh= 1.364E-08 alpha_mix =  0.700 |ddv_scf|^2 =  8.743E-16

     End of self-consistent calculation

     Convergence has been achieved 


     Representation #  35 mode #  35

     Self-consistent Calculation

      iter #   1 total cpu time : 19608.6 secs   av.it.:   3.0
      thresh= 1.000E-02 alpha_mix =  0.700 |ddv_scf|^2 =  3.045E-09

      iter #   2 total cpu time : 19688.3 secs   av.it.:  15.3
      thresh= 5.518E-06 alpha_mix =  0.700 |ddv_scf|^2 =  1.293E-09

      iter #   3 total cpu time : 19766.0 secs   av.it.:  14.9
      thresh= 3.595E-06 alpha_mix =  0.700 |ddv_scf|^2 =  1.978E-11

      iter #   4 total cpu time : 19845.0 secs   av.it.:  15.0
      thresh= 4.447E-07 alpha_mix =  0.700 |ddv_scf|^2 =  5.541E-13

      iter #   5 total cpu time : 19925.1 secs   av.it.:  15.7
      thresh= 7.444E-08 alpha_mix =  0.700 |ddv_scf|^2 =  3.625E-14

      iter #   6 total cpu time : 20004.4 secs   av.it.:  15.0
      thresh= 1.904E-08 alpha_mix =  0.700 |ddv_scf|^2 =  1.413E-15

     End of self-consistent calculation

     Convergence has been achieved 


     Representation #  36 mode #  36

     Self-consistent Calculation

      iter #   1 total cpu time : 20070.3 secs   av.it.:   4.4
      thresh= 1.000E-02 alpha_mix =  0.700 |ddv_scf|^2 =  5.599E-09

      iter #   2 total cpu time : 20153.7 secs   av.it.:  16.0
      thresh= 7.483E-06 alpha_mix =  0.700 |ddv_scf|^2 =  3.880E-10

      iter #   3 total cpu time : 20235.7 secs   av.it.:  15.9
      thresh= 1.970E-06 alpha_mix =  0.700 |ddv_scf|^2 =  1.564E-11

      iter #   4 total cpu time : 20317.8 secs   av.it.:  15.7
      thresh= 3.954E-07 alpha_mix =  0.700 |ddv_scf|^2 =  3.799E-12

      iter #   5 total cpu time : 20398.8 secs   av.it.:  15.1
      thresh= 1.949E-07 alpha_mix =  0.700 |ddv_scf|^2 =  1.427E-13

      iter #   6 total cpu time : 20480.5 secs   av.it.:  15.4
      thresh= 3.777E-08 alpha_mix =  0.700 |ddv_scf|^2 =  3.775E-15

     End of self-consistent calculation

     Convergence has been achieved 


     Representation #  37 mode #  37

     Self-consistent Calculation

      iter #   1 total cpu time : 20557.2 secs   av.it.:   3.0
      thresh= 1.000E-02 alpha_mix =  0.700 |ddv_scf|^2 =  9.089E-10

      iter #   2 total cpu time : 20640.7 secs   av.it.:  15.9
      thresh= 3.015E-06 alpha_mix =  0.700 |ddv_scf|^2 =  1.593E-10

      iter #   3 total cpu time : 20722.7 secs   av.it.:  15.4
      thresh= 1.262E-06 alpha_mix =  0.700 |ddv_scf|^2 =  2.065E-11

      iter #   4 total cpu time : 20802.5 secs   av.it.:  14.9
      thresh= 4.544E-07 alpha_mix =  0.700 |ddv_scf|^2 =  2.947E-13

      iter #   5 total cpu time : 20884.6 secs   av.it.:  15.3
      thresh= 5.429E-08 alpha_mix =  0.700 |ddv_scf|^2 =  6.580E-15

     End of self-consistent calculation

     Convergence has been achieved 


     Representation #  38 mode #  38

     Self-consistent Calculation

      iter #   1 total cpu time : 20945.3 secs   av.it.:   3.0
      thresh= 1.000E-02 alpha_mix =  0.700 |ddv_scf|^2 =  1.888E-09

      iter #   2 total cpu time : 21027.6 secs   av.it.:  15.7
      thresh= 4.345E-06 alpha_mix =  0.700 |ddv_scf|^2 =  4.478E-10

      iter #   3 total cpu time : 21104.7 secs   av.it.:  15.0
      thresh= 2.116E-06 alpha_mix =  0.700 |ddv_scf|^2 =  1.674E-11

      iter #   4 total cpu time : 21180.2 secs   av.it.:  15.0
      thresh= 4.091E-07 alpha_mix =  0.700 |ddv_scf|^2 =  8.977E-13

      iter #   5 total cpu time : 21260.6 secs   av.it.:  15.3
      thresh= 9.475E-08 alpha_mix =  0.700 |ddv_scf|^2 =  2.569E-14

      iter #   6 total cpu time : 21342.5 secs   av.it.:  15.3
      thresh= 1.603E-08 alpha_mix =  0.700 |ddv_scf|^2 =  9.972E-16

     End of self-consistent calculation

     Convergence has been achieved 


     Representation #  39 mode #  39

     Self-consistent Calculation

      iter #   1 total cpu time : 21416.8 secs   av.it.:   6.1
      thresh= 1.000E-02 alpha_mix =  0.700 |ddv_scf|^2 =  2.246E-07

      iter #   2 total cpu time : 21497.2 secs   av.it.:  15.0
      thresh= 4.739E-05 alpha_mix =  0.700 |ddv_scf|^2 =  1.169E-07

      iter #   3 total cpu time : 21574.9 secs   av.it.:  14.6
      thresh= 3.419E-05 alpha_mix =  0.700 |ddv_scf|^2 =  5.382E-10

      iter #   4 total cpu time : 21654.9 secs   av.it.:  15.2
      thresh= 2.320E-06 alpha_mix =  0.700 |ddv_scf|^2 =  1.153E-11

      iter #   5 total cpu time : 21734.5 secs   av.it.:  15.5
      thresh= 3.395E-07 alpha_mix =  0.700 |ddv_scf|^2 =  4.965E-13

      iter #   6 total cpu time : 21810.7 secs   av.it.:  14.7
      thresh= 7.046E-08 alpha_mix =  0.700 |ddv_scf|^2 =  2.939E-14

      iter #   7 total cpu time : 21888.0 secs   av.it.:  14.7
      thresh= 1.714E-08 alpha_mix =  0.700 |ddv_scf|^2 =  3.989E-15

     End of self-consistent calculation

     Convergence has been achieved 


     Representation #  40 mode #  40

     Self-consistent Calculation

      iter #   1 total cpu time : 21958.4 secs   av.it.:   4.6
      thresh= 1.000E-02 alpha_mix =  0.700 |ddv_scf|^2 =  8.401E-09

      iter #   2 total cpu time : 22040.2 secs   av.it.:  15.9
      thresh= 9.166E-06 alpha_mix =  0.700 |ddv_scf|^2 =  1.949E-09

      iter #   3 total cpu time : 22118.8 secs   av.it.:  15.1
      thresh= 4.414E-06 alpha_mix =  0.700 |ddv_scf|^2 =  6.079E-11

      iter #   4 total cpu time : 22194.8 secs   av.it.:  14.9
      thresh= 7.797E-07 alpha_mix =  0.700 |ddv_scf|^2 =  6.075E-12

      iter #   5 total cpu time : 22272.2 secs   av.it.:  15.2
      thresh= 2.465E-07 alpha_mix =  0.700 |ddv_scf|^2 =  3.434E-13

      iter #   6 total cpu time : 22352.8 secs   av.it.:  15.6
      thresh= 5.860E-08 alpha_mix =  0.700 |ddv_scf|^2 =  1.118E-15

     End of self-consistent calculation

     Convergence has been achieved 


     Representation #  41 mode #  41

     Self-consistent Calculation

      iter #   1 total cpu time : 22430.1 secs   av.it.:   3.9
      thresh= 1.000E-02 alpha_mix =  0.700 |ddv_scf|^2 =  6.172E-09

      iter #   2 total cpu time : 22507.5 secs   av.it.:  15.3
      thresh= 7.856E-06 alpha_mix =  0.700 |ddv_scf|^2 =  4.230E-09

      iter #   3 total cpu time : 22584.2 secs   av.it.:  14.9
      thresh= 6.504E-06 alpha_mix =  0.700 |ddv_scf|^2 =  4.858E-12

      iter #   4 total cpu time : 22665.6 secs   av.it.:  15.8
      thresh= 2.204E-07 alpha_mix =  0.700 |ddv_scf|^2 =  7.591E-13

      iter #   5 total cpu time : 22745.5 secs   av.it.:  15.3
      thresh= 8.713E-08 alpha_mix =  0.700 |ddv_scf|^2 =  4.973E-14

      iter #   6 total cpu time : 22825.2 secs   av.it.:  15.0
      thresh= 2.230E-08 alpha_mix =  0.700 |ddv_scf|^2 =  7.015E-16

     End of self-consistent calculation

     Convergence has been achieved 


     Representation #  42 mode #  42

     Self-consistent Calculation

      iter #   1 total cpu time : 22883.5 secs   av.it.:   3.0
      thresh= 1.000E-02 alpha_mix =  0.700 |ddv_scf|^2 =  3.776E-10

      iter #   2 total cpu time : 22965.0 secs   av.it.:  15.7
      thresh= 1.943E-06 alpha_mix =  0.700 |ddv_scf|^2 =  2.590E-11

      iter #   3 total cpu time : 23047.1 secs   av.it.:  15.9
      thresh= 5.089E-07 alpha_mix =  0.700 |ddv_scf|^2 =  1.440E-11

      iter #   4 total cpu time : 23124.6 secs   av.it.:  14.9
      thresh= 3.795E-07 alpha_mix =  0.700 |ddv_scf|^2 =  1.726E-13

      iter #   5 total cpu time : 23204.4 secs   av.it.:  15.4
      thresh= 4.155E-08 alpha_mix =  0.700 |ddv_scf|^2 =  1.104E-14

      iter #   6 total cpu time : 23284.4 secs   av.it.:  15.4
      thresh= 1.051E-08 alpha_mix =  0.700 |ddv_scf|^2 =  4.903E-16

     End of self-consistent calculation

     Convergence has been achieved 


     Representation #  43 mode #  43

     Self-consistent Calculation

      iter #   1 total cpu time : 23349.1 secs   av.it.:   4.3
      thresh= 1.000E-02 alpha_mix =  0.700 |ddv_scf|^2 =  5.700E-09

      iter #   2 total cpu time : 23432.3 secs   av.it.:  15.9
      thresh= 7.550E-06 alpha_mix =  0.700 |ddv_scf|^2 =  4.324E-10

      iter #   3 total cpu time : 23515.1 secs   av.it.:  15.9
      thresh= 2.079E-06 alpha_mix =  0.700 |ddv_scf|^2 =  3.162E-11

      iter #   4 total cpu time : 23595.7 secs   av.it.:  15.0
      thresh= 5.623E-07 alpha_mix =  0.700 |ddv_scf|^2 =  4.367E-12

      iter #   5 total cpu time : 23676.3 secs   av.it.:  15.0
      thresh= 2.090E-07 alpha_mix =  0.700 |ddv_scf|^2 =  1.751E-14

      iter #   6 total cpu time : 23759.6 secs   av.it.:  15.9
      thresh= 1.323E-08 alpha_mix =  0.700 |ddv_scf|^2 =  4.363E-16

     End of self-consistent calculation

     Convergence has been achieved 


     Representation #  44 mode #  44

     Self-consistent Calculation

      iter #   1 total cpu time : 23850.7 secs   av.it.:   6.4
      thresh= 1.000E-02 alpha_mix =  0.700 |ddv_scf|^2 =  7.543E-08

      iter #   2 total cpu time : 23932.3 secs   av.it.:  15.5
      thresh= 2.746E-05 alpha_mix =  0.700 |ddv_scf|^2 =  2.336E-08

      iter #   3 total cpu time : 24009.3 secs   av.it.:  14.9
      thresh= 1.528E-05 alpha_mix =  0.700 |ddv_scf|^2 =  3.364E-10

      iter #   4 total cpu time : 24088.0 secs   av.it.:  14.9
      thresh= 1.834E-06 alpha_mix =  0.700 |ddv_scf|^2 =  1.951E-11

      iter #   5 total cpu time : 24167.6 secs   av.it.:  14.9
      thresh= 4.417E-07 alpha_mix =  0.700 |ddv_scf|^2 =  1.443E-13

      iter #   6 total cpu time : 24249.4 secs   av.it.:  15.6
      thresh= 3.799E-08 alpha_mix =  0.700 |ddv_scf|^2 =  5.878E-15

     End of self-consistent calculation

     Convergence has been achieved 


     Representation #  45 mode #  45

     Self-consistent Calculation

      iter #   1 total cpu time : 24314.5 secs   av.it.:   3.0
      thresh= 1.000E-02 alpha_mix =  0.700 |ddv_scf|^2 =  1.143E-09

      iter #   2 total cpu time : 24397.4 secs   av.it.:  15.9
      thresh= 3.380E-06 alpha_mix =  0.700 |ddv_scf|^2 =  2.748E-10

      iter #   3 total cpu time : 24477.8 secs   av.it.:  15.0
      thresh= 1.658E-06 alpha_mix =  0.700 |ddv_scf|^2 =  1.707E-11

      iter #   4 total cpu time : 24556.6 secs   av.it.:  15.0
      thresh= 4.132E-07 alpha_mix =  0.700 |ddv_scf|^2 =  4.562E-13

      iter #   5 total cpu time : 24634.5 secs   av.it.:  15.4
      thresh= 6.754E-08 alpha_mix =  0.700 |ddv_scf|^2 =  2.181E-14

      iter #   6 total cpu time : 24713.3 secs   av.it.:  15.3
      thresh= 1.477E-08 alpha_mix =  0.700 |ddv_scf|^2 =  1.178E-15

     End of self-consistent calculation

     Convergence has been achieved 


     Representation #  46 mode #  46

     Self-consistent Calculation

      iter #   1 total cpu time : 24774.0 secs   av.it.:   3.0
      thresh= 1.000E-02 alpha_mix =  0.700 |ddv_scf|^2 =  2.645E-09

      iter #   2 total cpu time : 24854.6 secs   av.it.:  15.9
      thresh= 5.143E-06 alpha_mix =  0.700 |ddv_scf|^2 =  2.044E-09

      iter #   3 total cpu time : 24931.5 secs   av.it.:  14.9
      thresh= 4.521E-06 alpha_mix =  0.700 |ddv_scf|^2 =  5.497E-12

      iter #   4 total cpu time : 25014.2 secs   av.it.:  16.0
      thresh= 2.345E-07 alpha_mix =  0.700 |ddv_scf|^2 =  5.385E-13

      iter #   5 total cpu time : 25096.5 secs   av.it.:  15.9
      thresh= 7.338E-08 alpha_mix =  0.700 |ddv_scf|^2 =  8.213E-15

     End of self-consistent calculation

     Convergence has been achieved 


     Representation #  47 mode #  47

     Self-consistent Calculation

      iter #   1 total cpu time : 25158.3 secs   av.it.:   3.8
      thresh= 1.000E-02 alpha_mix =  0.700 |ddv_scf|^2 =  2.924E-09

      iter #   2 total cpu time : 25240.8 secs   av.it.:  15.9
      thresh= 5.407E-06 alpha_mix =  0.700 |ddv_scf|^2 =  2.320E-09

      iter #   3 total cpu time : 25318.4 secs   av.it.:  14.9
      thresh= 4.817E-06 alpha_mix =  0.700 |ddv_scf|^2 =  6.807E-12

      iter #   4 total cpu time : 25401.8 secs   av.it.:  15.9
      thresh= 2.609E-07 alpha_mix =  0.700 |ddv_scf|^2 =  5.322E-13

      iter #   5 total cpu time : 25482.9 secs   av.it.:  15.8
      thresh= 7.295E-08 alpha_mix =  0.700 |ddv_scf|^2 =  1.039E-14

      iter #   6 total cpu time : 25564.2 secs   av.it.:  15.9
      thresh= 1.020E-08 alpha_mix =  0.700 |ddv_scf|^2 =  8.254E-16

     End of self-consistent calculation

     Convergence has been achieved 


     Representation #  48 mode #  48

     Self-consistent Calculation

      iter #   1 total cpu time : 25623.6 secs   av.it.:   3.0
      thresh= 1.000E-02 alpha_mix =  0.700 |ddv_scf|^2 =  3.989E-10

      iter #   2 total cpu time : 25706.3 secs   av.it.:  15.9
      thresh= 1.997E-06 alpha_mix =  0.700 |ddv_scf|^2 =  2.091E-11

      iter #   3 total cpu time : 25789.5 secs   av.it.:  15.9
      thresh= 4.572E-07 alpha_mix =  0.700 |ddv_scf|^2 =  2.933E-12

      iter #   4 total cpu time : 25870.2 secs   av.it.:  15.8
      thresh= 1.713E-07 alpha_mix =  0.700 |ddv_scf|^2 =  2.957E-13

      iter #   5 total cpu time : 25949.4 secs   av.it.:  15.0
      thresh= 5.437E-08 alpha_mix =  0.700 |ddv_scf|^2 =  2.148E-14

      iter #   6 total cpu time : 26028.1 secs   av.it.:  15.0
      thresh= 1.466E-08 alpha_mix =  0.700 |ddv_scf|^2 =  5.492E-16

     End of self-consistent calculation

     Convergence has been achieved 


     Representation #  49 mode #  49

     Self-consistent Calculation

      iter #   1 total cpu time : 26088.0 secs   av.it.:   3.0
      thresh= 1.000E-02 alpha_mix =  0.700 |ddv_scf|^2 =  1.215E-09

      iter #   2 total cpu time : 26170.4 secs   av.it.:  15.9
      thresh= 3.486E-06 alpha_mix =  0.700 |ddv_scf|^2 =  6.568E-10

      iter #   3 total cpu time : 26248.2 secs   av.it.:  14.9
      thresh= 2.563E-06 alpha_mix =  0.700 |ddv_scf|^2 =  8.392E-12

      iter #   4 total cpu time : 26326.8 secs   av.it.:  15.1
      thresh= 2.897E-07 alpha_mix =  0.700 |ddv_scf|^2 =  5.256E-13

      iter #   5 total cpu time : 26407.6 secs   av.it.:  15.9
      thresh= 7.250E-08 alpha_mix =  0.700 |ddv_scf|^2 =  1.629E-14

      iter #   6 total cpu time : 26488.0 secs   av.it.:  15.7
      thresh= 1.276E-08 alpha_mix =  0.700 |ddv_scf|^2 =  6.878E-16

     End of self-consistent calculation

     Convergence has been achieved 


     Representation #  50 mode #  50

     Self-consistent Calculation

      iter #   1 total cpu time : 26554.0 secs   av.it.:   4.8
      thresh= 1.000E-02 alpha_mix =  0.700 |ddv_scf|^2 =  1.016E-08

      iter #   2 total cpu time : 26635.8 secs   av.it.:  15.9
      thresh= 1.008E-05 alpha_mix =  0.700 |ddv_scf|^2 =  4.238E-09

      iter #   3 total cpu time : 26714.5 secs   av.it.:  14.9
      thresh= 6.510E-06 alpha_mix =  0.700 |ddv_scf|^2 =  1.293E-10

      iter #   4 total cpu time : 26794.3 secs   av.it.:  15.0
      thresh= 1.137E-06 alpha_mix =  0.700 |ddv_scf|^2 =  2.737E-12

      iter #   5 total cpu time : 26875.2 secs   av.it.:  15.6
      thresh= 1.655E-07 alpha_mix =  0.700 |ddv_scf|^2 =  4.687E-13

      iter #   6 total cpu time : 26954.6 secs   av.it.:  15.1
      thresh= 6.846E-08 alpha_mix =  0.700 |ddv_scf|^2 =  1.742E-15

     End of self-consistent calculation

     Convergence has been achieved 


     Representation #  51 mode #  51

     Self-consistent Calculation

      iter #   1 total cpu time : 27032.4 secs   av.it.:   3.0
      thresh= 1.000E-02 alpha_mix =  0.700 |ddv_scf|^2 =  3.139E-09

      iter #   2 total cpu time : 27114.0 secs   av.it.:  15.9
      thresh= 5.602E-06 alpha_mix =  0.700 |ddv_scf|^2 =  2.456E-09

      iter #   3 total cpu time : 27190.8 secs   av.it.:  14.8
      thresh= 4.955E-06 alpha_mix =  0.700 |ddv_scf|^2 =  5.334E-12

      iter #   4 total cpu time : 27269.9 secs   av.it.:  15.9
      thresh= 2.309E-07 alpha_mix =  0.700 |ddv_scf|^2 =  1.049E-12

      iter #   5 total cpu time : 27348.1 secs   av.it.:  15.6
      thresh= 1.024E-07 alpha_mix =  0.700 |ddv_scf|^2 =  5.490E-14

      iter #   6 total cpu time : 27426.6 secs   av.it.:  15.5
      thresh= 2.343E-08 alpha_mix =  0.700 |ddv_scf|^2 =  2.654E-15

     End of self-consistent calculation

     Convergence has been achieved 


     Representation #  52 mode #  52

     Self-consistent Calculation

      iter #   1 total cpu time : 27486.7 secs   av.it.:   3.2
      thresh= 1.000E-02 alpha_mix =  0.700 |ddv_scf|^2 =  2.372E-09

      iter #   2 total cpu time : 27567.4 secs   av.it.:  15.9
      thresh= 4.870E-06 alpha_mix =  0.700 |ddv_scf|^2 =  1.267E-09

      iter #   3 total cpu time : 27645.0 secs   av.it.:  14.9
      thresh= 3.560E-06 alpha_mix =  0.700 |ddv_scf|^2 =  1.319E-11

      iter #   4 total cpu time : 27724.2 secs   av.it.:  15.0
      thresh= 3.631E-07 alpha_mix =  0.700 |ddv_scf|^2 =  1.305E-12

      iter #   5 total cpu time : 27804.1 secs   av.it.:  15.2
      thresh= 1.143E-07 alpha_mix =  0.700 |ddv_scf|^2 =  4.945E-14

      iter #   6 total cpu time : 27883.5 secs   av.it.:  15.1
      thresh= 2.224E-08 alpha_mix =  0.700 |ddv_scf|^2 =  1.349E-15

     End of self-consistent calculation

     Convergence has been achieved 


     Representation #  53 mode #  53

     Self-consistent Calculation

      iter #   1 total cpu time : 27943.0 secs   av.it.:   3.0
      thresh= 1.000E-02 alpha_mix =  0.700 |ddv_scf|^2 =  1.361E-09

      iter #   2 total cpu time : 28024.2 secs   av.it.:  15.9
      thresh= 3.689E-06 alpha_mix =  0.700 |ddv_scf|^2 =  5.983E-10

      iter #   3 total cpu time : 28100.9 secs   av.it.:  15.0
      thresh= 2.446E-06 alpha_mix =  0.700 |ddv_scf|^2 =  8.920E-12

      iter #   4 total cpu time : 28179.8 secs   av.it.:  15.4
      thresh= 2.987E-07 alpha_mix =  0.700 |ddv_scf|^2 =  1.187E-12

      iter #   5 total cpu time : 28258.1 secs   av.it.:  15.0
      thresh= 1.090E-07 alpha_mix =  0.700 |ddv_scf|^2 =  6.059E-14

      iter #   6 total cpu time : 28337.1 secs   av.it.:  15.3
      thresh= 2.461E-08 alpha_mix =  0.700 |ddv_scf|^2 =  1.744E-15

     End of self-consistent calculation

     Convergence has been achieved 


     Representation #  54 mode #  54

     Self-consistent Calculation

      iter #   1 total cpu time : 28396.3 secs   av.it.:   3.0
      thresh= 1.000E-02 alpha_mix =  0.700 |ddv_scf|^2 =  4.253E-09

      iter #   2 total cpu time : 28473.8 secs   av.it.:  15.3
      thresh= 6.521E-06 alpha_mix =  0.700 |ddv_scf|^2 =  2.998E-09

      iter #   3 total cpu time : 28548.8 secs   av.it.:  14.6
      thresh= 5.476E-06 alpha_mix =  0.700 |ddv_scf|^2 =  6.433E-12

      iter #   4 total cpu time : 28628.6 secs   av.it.:  15.7
      thresh= 2.536E-07 alpha_mix =  0.700 |ddv_scf|^2 =  7.445E-13

      iter #   5 total cpu time : 28709.2 secs   av.it.:  15.3
      thresh= 8.628E-08 alpha_mix =  0.700 |ddv_scf|^2 =  2.476E-14

      iter #   6 total cpu time : 28792.1 secs   av.it.:  15.9
      thresh= 1.574E-08 alpha_mix =  0.700 |ddv_scf|^2 =  2.130E-15

     End of self-consistent calculation

     Convergence has been achieved 


     Representation #  55 mode #  55

     Self-consistent Calculation

      iter #   1 total cpu time : 28851.6 secs   av.it.:   3.0
      thresh= 1.000E-02 alpha_mix =  0.700 |ddv_scf|^2 =  6.961E-10

      iter #   2 total cpu time : 28934.6 secs   av.it.:  15.9
      thresh= 2.638E-06 alpha_mix =  0.700 |ddv_scf|^2 =  1.639E-10

      iter #   3 total cpu time : 29015.0 secs   av.it.:  15.4
      thresh= 1.280E-06 alpha_mix =  0.700 |ddv_scf|^2 =  7.097E-12

      iter #   4 total cpu time : 29095.9 secs   av.it.:  15.4
      thresh= 2.664E-07 alpha_mix =  0.700 |ddv_scf|^2 =  1.501E-13

      iter #   5 total cpu time : 29178.3 secs   av.it.:  15.9
      thresh= 3.874E-08 alpha_mix =  0.700 |ddv_scf|^2 =  2.450E-14

      iter #   6 total cpu time : 29256.8 secs   av.it.:  15.0
      thresh= 1.565E-08 alpha_mix =  0.700 |ddv_scf|^2 =  1.884E-15

     End of self-consistent calculation

     Convergence has been achieved 


     Representation #  56 mode #  56

     Self-consistent Calculation

      iter #   1 total cpu time : 29330.7 secs   av.it.:   6.9
      thresh= 1.000E-02 alpha_mix =  0.700 |ddv_scf|^2 =  2.165E-07

      iter #   2 total cpu time : 29408.6 secs   av.it.:  15.1
      thresh= 4.653E-05 alpha_mix =  0.700 |ddv_scf|^2 =  1.727E-07

      iter #   3 total cpu time : 29481.8 secs   av.it.:  14.5
      thresh= 4.156E-05 alpha_mix =  0.700 |ddv_scf|^2 =  1.505E-10

      iter #   4 total cpu time : 29561.3 secs   av.it.:  15.6
      thresh= 1.227E-06 alpha_mix =  0.700 |ddv_scf|^2 =  2.208E-11

      iter #   5 total cpu time : 29641.3 secs   av.it.:  15.5
      thresh= 4.698E-07 alpha_mix =  0.700 |ddv_scf|^2 =  1.187E-12

      iter #   6 total cpu time : 29721.6 secs   av.it.:  15.5
      thresh= 1.090E-07 alpha_mix =  0.700 |ddv_scf|^2 =  2.751E-14

      iter #   7 total cpu time : 29802.2 secs   av.it.:  15.6
      thresh= 1.659E-08 alpha_mix =  0.700 |ddv_scf|^2 =  2.233E-15

     End of self-consistent calculation

     Convergence has been achieved 


     Representation #  57 mode #  57

     Self-consistent Calculation

      iter #   1 total cpu time : 29874.1 secs   av.it.:   5.0
      thresh= 1.000E-02 alpha_mix =  0.700 |ddv_scf|^2 =  3.578E-08

      iter #   2 total cpu time : 29954.1 secs   av.it.:  15.1
      thresh= 1.891E-05 alpha_mix =  0.700 |ddv_scf|^2 =  2.517E-08

      iter #   3 total cpu time : 30029.3 secs   av.it.:  14.7
      thresh= 1.586E-05 alpha_mix =  0.700 |ddv_scf|^2 =  5.642E-11

      iter #   4 total cpu time : 30111.0 secs   av.it.:  15.9
      thresh= 7.511E-07 alpha_mix =  0.700 |ddv_scf|^2 =  5.518E-12

      iter #   5 total cpu time : 30189.8 secs   av.it.:  15.6
      thresh= 2.349E-07 alpha_mix =  0.700 |ddv_scf|^2 =  8.927E-13

      iter #   6 total cpu time : 30269.6 secs   av.it.:  15.3
      thresh= 9.448E-08 alpha_mix =  0.700 |ddv_scf|^2 =  5.697E-15

     End of self-consistent calculation

     Convergence has been achieved 


     Representation #  58 mode #  58

     Self-consistent Calculation

      iter #   1 total cpu time : 30344.6 secs   av.it.:   3.0
      thresh= 1.000E-02 alpha_mix =  0.700 |ddv_scf|^2 =  8.885E-10

      iter #   2 total cpu time : 30426.1 secs   av.it.:  15.7
      thresh= 2.981E-06 alpha_mix =  0.700 |ddv_scf|^2 =  3.771E-10

      iter #   3 total cpu time : 30503.6 secs   av.it.:  14.9
      thresh= 1.942E-06 alpha_mix =  0.700 |ddv_scf|^2 =  1.255E-11

      iter #   4 total cpu time : 30581.3 secs   av.it.:  14.9
      thresh= 3.542E-07 alpha_mix =  0.700 |ddv_scf|^2 =  4.452E-13

      iter #   5 total cpu time : 30660.6 secs   av.it.:  15.4
      thresh= 6.672E-08 alpha_mix =  0.700 |ddv_scf|^2 =  2.388E-14

      iter #   6 total cpu time : 30741.6 secs   av.it.:  15.5
      thresh= 1.545E-08 alpha_mix =  0.700 |ddv_scf|^2 =  1.768E-15

     End of self-consistent calculation

     Convergence has been achieved 


     Representation #  59 mode #  59

     Self-consistent Calculation

      iter #   1 total cpu time : 30801.7 secs   av.it.:   3.0
      thresh= 1.000E-02 alpha_mix =  0.700 |ddv_scf|^2 =  1.574E-09

      iter #   2 total cpu time : 30884.0 secs   av.it.:  15.9
      thresh= 3.967E-06 alpha_mix =  0.700 |ddv_scf|^2 =  7.390E-10

      iter #   3 total cpu time : 30961.5 secs   av.it.:  14.9
      thresh= 2.719E-06 alpha_mix =  0.700 |ddv_scf|^2 =  1.211E-11

      iter #   4 total cpu time : 31039.7 secs   av.it.:  15.0
      thresh= 3.480E-07 alpha_mix =  0.700 |ddv_scf|^2 =  1.232E-12

      iter #   5 total cpu time : 31118.3 secs   av.it.:  15.1
      thresh= 1.110E-07 alpha_mix =  0.700 |ddv_scf|^2 =  4.514E-14

      iter #   6 total cpu time : 31198.8 secs   av.it.:  15.3
      thresh= 2.125E-08 alpha_mix =  0.700 |ddv_scf|^2 =  1.602E-15

     End of self-consistent calculation

     Convergence has been achieved 


     Representation #  60 mode #  60

     Self-consistent Calculation

      iter #   1 total cpu time : 31259.9 secs   av.it.:   3.0
      thresh= 1.000E-02 alpha_mix =  0.700 |ddv_scf|^2 =  2.275E-09

      iter #   2 total cpu time : 31342.4 secs   av.it.:  15.9
      thresh= 4.770E-06 alpha_mix =  0.700 |ddv_scf|^2 =  1.253E-09

      iter #   3 total cpu time : 31420.9 secs   av.it.:  14.9
      thresh= 3.539E-06 alpha_mix =  0.700 |ddv_scf|^2 =  5.666E-12

      iter #   4 total cpu time : 31501.5 secs   av.it.:  15.5
      thresh= 2.380E-07 alpha_mix =  0.700 |ddv_scf|^2 =  1.645E-12

      iter #   5 total cpu time : 31579.7 secs   av.it.:  15.0
      thresh= 1.283E-07 alpha_mix =  0.700 |ddv_scf|^2 =  4.884E-14

      iter #   6 total cpu time : 31660.4 secs   av.it.:  15.7
      thresh= 2.210E-08 alpha_mix =  0.700 |ddv_scf|^2 =  2.213E-15

     End of self-consistent calculation

     Convergence has been achieved 


     Representation #  61 mode #  61

     Self-consistent Calculation

      iter #   1 total cpu time : 31721.4 secs   av.it.:   3.1
      thresh= 1.000E-02 alpha_mix =  0.700 |ddv_scf|^2 =  5.453E-09

      iter #   2 total cpu time : 31800.2 secs   av.it.:  15.2
      thresh= 7.385E-06 alpha_mix =  0.700 |ddv_scf|^2 =  3.482E-09

      iter #   3 total cpu time : 31877.1 secs   av.it.:  14.8
      thresh= 5.901E-06 alpha_mix =  0.700 |ddv_scf|^2 =  1.394E-11

      iter #   4 total cpu time : 31956.1 secs   av.it.:  15.0
      thresh= 3.734E-07 alpha_mix =  0.700 |ddv_scf|^2 =  1.252E-12

      iter #   5 total cpu time : 32036.3 secs   av.it.:  15.3
      thresh= 1.119E-07 alpha_mix =  0.700 |ddv_scf|^2 =  7.456E-14

      iter #   6 total cpu time : 32115.2 secs   av.it.:  15.0
[...]

      iter #   4 total cpu time :919234.7 secs   av.it.:  15.0
      thresh= 6.967E-07 alpha_mix =  0.700 |ddv_scf|^2 =  3.773E-12

      iter #   5 total cpu time :919613.3 secs   av.it.:  15.0
      thresh= 1.943E-07 alpha_mix =  0.700 |ddv_scf|^2 =  1.979E-13

      iter #   6 total cpu time :919994.4 secs   av.it.:  15.1
      thresh= 4.449E-08 alpha_mix =  0.700 |ddv_scf|^2 =  1.607E-14

      iter #   7 total cpu time :920378.7 secs   av.it.:  15.7
      thresh= 1.268E-08 alpha_mix =  0.700 |ddv_scf|^2 =  1.537E-15

     End of self-consistent calculation

     Convergence has been achieved 


     Representation #  64 mode #  64

     Self-consistent Calculation

      iter #   1 total cpu time :920553.1 secs   av.it.:   3.2
      thresh= 1.000E-02 alpha_mix =  0.700 |ddv_scf|^2 =  4.881E-09

      iter #   2 total cpu time :920933.8 secs   av.it.:  15.9
      thresh= 6.986E-06 alpha_mix =  0.700 |ddv_scf|^2 =  3.782E-09

      iter #   3 total cpu time :921298.8 secs   av.it.:  15.0
      thresh= 6.150E-06 alpha_mix =  0.700 |ddv_scf|^2 =  3.950E-11

      iter #   4 total cpu time :921674.8 secs   av.it.:  15.0
      thresh= 6.285E-07 alpha_mix =  0.700 |ddv_scf|^2 =  5.029E-12

      iter #   5 total cpu time :922050.0 secs   av.it.:  15.0
      thresh= 2.243E-07 alpha_mix =  0.700 |ddv_scf|^2 =  1.996E-13

      iter #   6 total cpu time :922431.5 secs   av.it.:  15.4
      thresh= 4.468E-08 alpha_mix =  0.700 |ddv_scf|^2 =  1.839E-14

      iter #   7 total cpu time :922813.3 secs   av.it.:  15.4
      thresh= 1.356E-08 alpha_mix =  0.700 |ddv_scf|^2 =  2.469E-15

     End of self-consistent calculation

     Convergence has been achieved 


     Representation #  65 mode #  65

     Self-consistent Calculation

      iter #   1 total cpu time :922986.8 secs   av.it.:   3.0
      thresh= 1.000E-02 alpha_mix =  0.700 |ddv_scf|^2 =  4.732E-09

      iter #   2 total cpu time :923356.1 secs   av.it.:  15.1
      thresh= 6.879E-06 alpha_mix =  0.700 |ddv_scf|^2 =  4.754E-09

      iter #   3 total cpu time :923708.9 secs   av.it.:  14.0
      thresh= 6.895E-06 alpha_mix =  0.700 |ddv_scf|^2 =  3.432E-11

      iter #   4 total cpu time :924079.8 secs   av.it.:  15.0
      thresh= 5.858E-07 alpha_mix =  0.700 |ddv_scf|^2 =  2.426E-12

      iter #   5 total cpu time :924460.5 secs   av.it.:  15.3
      thresh= 1.557E-07 alpha_mix =  0.700 |ddv_scf|^2 =  1.626E-13

      iter #   6 total cpu time :924834.1 secs   av.it.:  15.0
      thresh= 4.032E-08 alpha_mix =  0.700 |ddv_scf|^2 =  1.170E-14

      iter #   7 total cpu time :925205.1 secs   av.it.:  15.3
      thresh= 1.082E-08 alpha_mix =  0.700 |ddv_scf|^2 =  9.481E-16

     End of self-consistent calculation

     Convergence has been achieved 


     Representation #  66 mode #  66

     Self-consistent Calculation

      iter #   1 total cpu time :925383.2 secs   av.it.:   3.1
      thresh= 1.000E-02 alpha_mix =  0.700 |ddv_scf|^2 =  3.933E-09

      iter #   2 total cpu time :925770.3 secs   av.it.:  15.9
      thresh= 6.271E-06 alpha_mix =  0.700 |ddv_scf|^2 =  2.734E-09

      iter #   3 total cpu time :926136.8 secs   av.it.:  15.0
      thresh= 5.228E-06 alpha_mix =  0.700 |ddv_scf|^2 =  5.852E-11

      iter #   4 total cpu time :926505.8 secs   av.it.:  15.0
      thresh= 7.650E-07 alpha_mix =  0.700 |ddv_scf|^2 =  3.241E-12

      iter #   5 total cpu time :926887.7 secs   av.it.:  15.0
      thresh= 1.800E-07 alpha_mix =  0.700 |ddv_scf|^2 =  1.253E-13

      iter #   6 total cpu time :927275.4 secs   av.it.:  15.7
      thresh= 3.540E-08 alpha_mix =  0.700 |ddv_scf|^2 =  1.393E-14

      iter #   7 total cpu time :927659.3 secs   av.it.:  15.1
      thresh= 1.180E-08 alpha_mix =  0.700 |ddv_scf|^2 =  1.190E-15

     End of self-consistent calculation

     Convergence has been achieved 

     Number of q in the star =    4
     List of q in the star:
          1   0.333333333   0.323605610   0.477897177
          2   0.333333333  -0.323605610  -0.477897177
          3  -0.333333333   0.323605610  -0.477897177
          4  -0.333333333  -0.323605610   0.477897177
     In addition there is the -q list: 
          1  -0.333333333  -0.323605610  -0.477897177
          2  -0.333333333   0.323605610   0.477897177
          3   0.333333333  -0.323605610   0.477897177
          4   0.333333333   0.323605610  -0.477897177

     Diagonalizing the dynamical matrix

     q = (    0.333333333   0.323605610   0.477897177 ) 

 **************************************************************************
     freq (    1) =       1.248723 [THz] =      41.652921 [cm-1]
     freq (    2) =       1.310168 [THz] =      43.702517 [cm-1]
     freq (    3) =       1.812895 [THz] =      60.471671 [cm-1]
     freq (    4) =       2.051229 [THz] =      68.421634 [cm-1]
     freq (    5) =       2.936734 [THz] =      97.958906 [cm-1]
     freq (    6) =       3.040554 [THz] =     101.421951 [cm-1]
     freq (    7) =       4.996582 [THz] =     166.668030 [cm-1]
     freq (    8) =       5.116416 [THz] =     170.665268 [cm-1]
     freq (    9) =       5.864039 [THz] =     195.603275 [cm-1]
     freq (   10) =       6.138140 [THz] =     204.746324 [cm-1]
     freq (   11) =       6.552683 [THz] =     218.573966 [cm-1]
     freq (   12) =       6.558663 [THz] =     218.773446 [cm-1]
     freq (   13) =       6.831877 [THz] =     227.886891 [cm-1]
     freq (   14) =       7.185226 [THz] =     239.673328 [cm-1]
     freq (   15) =       7.663441 [THz] =     255.624881 [cm-1]
     freq (   16) =       7.753380 [THz] =     258.624909 [cm-1]
     freq (   17) =       8.715954 [THz] =     290.732914 [cm-1]
     freq (   18) =       8.731990 [THz] =     291.267827 [cm-1]
     freq (   19) =       9.052108 [THz] =     301.945819 [cm-1]
     freq (   20) =       9.101785 [THz] =     303.602854 [cm-1]
     freq (   21) =       9.803648 [THz] =     327.014510 [cm-1]
     freq (   22) =      10.050690 [THz] =     335.254934 [cm-1]
     freq (   23) =      10.291772 [THz] =     343.296572 [cm-1]
     freq (   24) =      10.326107 [THz] =     344.441865 [cm-1]
     freq (   25) =      10.849615 [THz] =     361.904203 [cm-1]
     freq (   26) =      10.962687 [THz] =     365.675875 [cm-1]
     freq (   27) =      13.547697 [THz] =     451.902531 [cm-1]
     freq (   28) =      13.608503 [THz] =     453.930799 [cm-1]
     freq (   29) =      13.656191 [THz] =     455.521500 [cm-1]
     freq (   30) =      13.758744 [THz] =     458.942305 [cm-1]
     freq (   31) =      30.862209 [THz] =    1029.452468 [cm-1]
     freq (   32) =      30.881736 [THz] =    1030.103823 [cm-1]
     freq (   33) =      31.056420 [THz] =    1035.930677 [cm-1]
     freq (   34) =      31.080548 [THz] =    1036.735485 [cm-1]
     freq (   35) =      31.982324 [THz] =    1066.815502 [cm-1]
     freq (   36) =      32.004244 [THz] =    1067.546685 [cm-1]
     freq (   37) =      32.039691 [THz] =    1068.729052 [cm-1]
     freq (   38) =      32.091428 [THz] =    1070.454818 [cm-1]
     freq (   39) =      32.337954 [THz] =    1078.678034 [cm-1]
     freq (   40) =      32.366303 [THz] =    1079.623658 [cm-1]
     freq (   41) =      32.484548 [THz] =    1083.567873 [cm-1]
     freq (   42) =      32.534488 [THz] =    1085.233692 [cm-1]
     freq (   43) =      35.871872 [THz] =    1196.556849 [cm-1]
     freq (   44) =      35.905256 [THz] =    1197.670432 [cm-1]
     freq (   45) =      36.093793 [THz] =    1203.959333 [cm-1]
     freq (   46) =      36.132043 [THz] =    1205.235221 [cm-1]
     freq (   47) =      36.185602 [THz] =    1207.021742 [cm-1]
     freq (   48) =      36.205810 [THz] =    1207.695814 [cm-1]
     freq (   49) =      36.290194 [THz] =    1210.510576 [cm-1]
     freq (   50) =      36.309957 [THz] =    1211.169786 [cm-1]
     freq (   51) =      68.231411 [THz] =    2275.954895 [cm-1]
     freq (   52) =      68.252744 [THz] =    2276.666468 [cm-1]
     freq (   53) =      68.284244 [THz] =    2277.717216 [cm-1]
     freq (   54) =      68.327702 [THz] =    2279.166813 [cm-1]
     freq (   55) =      70.230307 [THz] =    2342.630896 [cm-1]
     freq (   56) =      70.236407 [THz] =    2342.834340 [cm-1]
     freq (   57) =      70.372405 [THz] =    2347.370747 [cm-1]
     freq (   58) =      70.376609 [THz] =    2347.510996 [cm-1]
     freq (   59) =      71.061507 [THz] =    2370.356735 [cm-1]
     freq (   60) =      71.071227 [THz] =    2370.680956 [cm-1]
     freq (   61) =      71.150692 [THz] =    2373.331612 [cm-1]
     freq (   62) =      71.174799 [THz] =    2374.135750 [cm-1]
     freq (   63) =      71.601503 [THz] =    2388.369043 [cm-1]
     freq (   64) =      71.617903 [THz] =    2388.916102 [cm-1]
     freq (   65) =      71.737606 [THz] =    2392.908964 [cm-1]
     freq (   66) =      71.775130 [THz] =    2394.160640 [cm-1]
 **************************************************************************

     Mode symmetry, C_1 (1)     point group:

     freq (   1-   1) =         41.7  [cm-1]   --> A                  
     freq (   2-   2) =         43.7  [cm-1]   --> A                  
     freq (   3-   3) =         60.5  [cm-1]   --> A                  
     freq (   4-   4) =         68.4  [cm-1]   --> A                  
     freq (   5-   5) =         98.0  [cm-1]   --> A                  
     freq (   6-   6) =        101.4  [cm-1]   --> A                  
     freq (   7-   7) =        166.7  [cm-1]   --> A                  
     freq (   8-   8) =        170.7  [cm-1]   --> A                  
     freq (   9-   9) =        195.6  [cm-1]   --> A                  
     freq (  10-  10) =        204.7  [cm-1]   --> A                  
     freq (  11-  11) =        218.6  [cm-1]   --> A                  
     freq (  12-  12) =        218.8  [cm-1]   --> A                  
     freq (  13-  13) =        227.9  [cm-1]   --> A                  
     freq (  14-  14) =        239.7  [cm-1]   --> A                  
     freq (  15-  15) =        255.6  [cm-1]   --> A                  
     freq (  16-  16) =        258.6  [cm-1]   --> A                  
     freq (  17-  17) =        290.7  [cm-1]   --> A                  
     freq (  18-  18) =        291.3  [cm-1]   --> A                  
     freq (  19-  19) =        301.9  [cm-1]   --> A                  
     freq (  20-  20) =        303.6  [cm-1]   --> A                  
     freq (  21-  21) =        327.0  [cm-1]   --> A                  
     freq (  22-  22) =        335.3  [cm-1]   --> A                  
     freq (  23-  23) =        343.3  [cm-1]   --> A                  
     freq (  24-  24) =        344.4  [cm-1]   --> A                  
     freq (  25-  25) =        361.9  [cm-1]   --> A                  
     freq (  26-  26) =        365.7  [cm-1]   --> A                  
     freq (  27-  27) =        451.9  [cm-1]   --> A                  
     freq (  28-  28) =        453.9  [cm-1]   --> A                  
     freq (  29-  29) =        455.5  [cm-1]   --> A                  
     freq (  30-  30) =        458.9  [cm-1]   --> A                  
     freq (  31-  31) =       1029.5  [cm-1]   --> A                  
     freq (  32-  32) =       1030.1  [cm-1]   --> A                  
     freq (  33-  33) =       1035.9  [cm-1]   --> A                  
     freq (  34-  34) =       1036.7  [cm-1]   --> A                  
     freq (  35-  35) =       1066.8  [cm-1]   --> A                  
     freq (  36-  36) =       1067.5  [cm-1]   --> A                  
     freq (  37-  37) =       1068.7  [cm-1]   --> A                  
     freq (  38-  38) =       1070.5  [cm-1]   --> A                  
     freq (  39-  39) =       1078.7  [cm-1]   --> A                  
     freq (  40-  40) =       1079.6  [cm-1]   --> A                  
     freq (  41-  41) =       1083.6  [cm-1]   --> A                  
     freq (  42-  42) =       1085.2  [cm-1]   --> A                  
     freq (  43-  43) =       1196.6  [cm-1]   --> A                  
     freq (  44-  44) =       1197.7  [cm-1]   --> A                  
     freq (  45-  45) =       1204.0  [cm-1]   --> A                  
     freq (  46-  46) =       1205.2  [cm-1]   --> A                  
     freq (  47-  47) =       1207.0  [cm-1]   --> A                  
     freq (  48-  48) =       1207.7  [cm-1]   --> A                  
     freq (  49-  49) =       1210.5  [cm-1]   --> A                  
     freq (  50-  50) =       1211.2  [cm-1]   --> A                  
     freq (  51-  51) =       2276.0  [cm-1]   --> A                  
     freq (  52-  52) =       2276.7  [cm-1]   --> A                  
     freq (  53-  53) =       2277.7  [cm-1]   --> A                  
     freq (  54-  54) =       2279.2  [cm-1]   --> A                  
     freq (  55-  55) =       2342.6  [cm-1]   --> A                  
     freq (  56-  56) =       2342.8  [cm-1]   --> A                  
     freq (  57-  57) =       2347.4  [cm-1]   --> A                  
     freq (  58-  58) =       2347.5  [cm-1]   --> A                  
     freq (  59-  59) =       2370.4  [cm-1]   --> A                  
     freq (  60-  60) =       2370.7  [cm-1]   --> A                  
     freq (  61-  61) =       2373.3  [cm-1]   --> A                  
     freq (  62-  62) =       2374.1  [cm-1]   --> A                  
     freq (  63-  63) =       2388.4  [cm-1]   --> A                  
     freq (  64-  64) =       2388.9  [cm-1]   --> A                  
     freq (  65-  65) =       2392.9  [cm-1]   --> A                  
     freq (  66-  66) =       2394.2  [cm-1]   --> A                  

     init_run     :      8.35s CPU      8.63s WALL (       7 calls)
     electrons    :   4777.67s CPU   4813.65s WALL (       7 calls)

     Called by init_run:
     wfcinit      :      0.00s CPU      0.07s WALL (       7 calls)
     potinit      :      1.03s CPU      1.09s WALL (       7 calls)
     hinit0       :      0.80s CPU      0.84s WALL (       7 calls)

     Called by electrons:
     c_bands      :   4777.67s CPU   4813.64s WALL (       7 calls)
     v_of_rho     :      0.95s CPU      1.00s WALL (       8 calls)
     newd         :      1.43s CPU      1.48s WALL (       8 calls)

     Called by c_bands:
     init_us_2    :   2309.73s CPU   2506.04s WALL (  444174 calls)
     cegterg      :   4377.43s CPU   4407.99s WALL (    2773 calls)

     Called by *egterg:
     cdiaghg      :    144.45s CPU    145.10s WALL (   32191 calls)
     h_psi        : 482855.23s CPU 487359.50s WALL ( 5600893 calls)
     s_psi        : 204020.63s CPU 204891.57s WALL (11508775 calls)
     g_psi        :     12.12s CPU     12.19s WALL (   30801 calls)

     Called by h_psi:
     h_psi:calbec :  85691.44s CPU  86158.40s WALL ( 5600893 calls)
     vloc_psi     : 296191.56s CPU 299798.90s WALL ( 5600893 calls)
     add_vuspsi   :  98479.30s CPU  98907.63s WALL ( 5600893 calls)

     General routines
     calbec       : 187825.05s CPU 188796.95s WALL (12184524 calls)
     fft          :    815.74s CPU    878.89s WALL (  101983 calls)
     ffts         :   1708.34s CPU   1744.40s WALL (   92704 calls)
     fftw         : 290843.96s CPU 294598.49s WALL (******** calls)
     interpolate  :     65.27s CPU     75.55s WALL (    7960 calls)
     davcio       :    826.91s CPU   1254.04s WALL ( 1907013 calls)

     Parallel routines

     PHONON       :  10d15h13m CPU  10d17h41m WALL

     INITIALIZATION: 
     phq_setup    :      2.85s CPU      3.68s WALL (       8 calls)
     phq_init     :   4009.25s CPU   4043.94s WALL (       8 calls)

     phq_init     :   4009.25s CPU   4043.94s WALL (       8 calls)
     set_drhoc    :      0.10s CPU      0.11s WALL (      24 calls)
     init_vloc    :      0.09s CPU      0.09s WALL (       8 calls)
     init_us_1    :      0.17s CPU      0.22s WALL (       8 calls)
     init_us_2    :   2309.73s CPU   2506.04s WALL (  444174 calls)
     newd         :      1.43s CPU      1.48s WALL (       8 calls)
     dvanqq       :    167.94s CPU    169.87s WALL (       8 calls)
     drho         :   3584.89s CPU   3616.04s WALL (       8 calls)
     drhous       :   3258.66s CPU   3284.77s WALL (       8 calls)
     nldyntot     :     82.73s CPU     82.85s WALL (       8 calls)

     DYNAMICAL MATRIX:
     dynmat0      :    199.99s CPU    200.86s WALL (       8 calls)
     dynmat_us    :    154.35s CPU    155.07s WALL (       8 calls)
     addusdynmat  :      0.02s CPU      0.06s WALL (       8 calls)
     d2ionq       :     43.27s CPU     43.33s WALL (       8 calls)
     dynmatcc     :      2.22s CPU      2.30s WALL (       8 calls)
     phqscf       : 905664.82s CPU 914411.14s WALL (       8 calls)
     dynmatrix    :      0.76s CPU      0.89s WALL (       8 calls)

     phqscf       : 905664.82s CPU 914411.14s WALL (       8 calls)
     solve_linter : 899848.02s CPU 908460.23s WALL (     527 calls)
     sth_kernel   : 873591.86s CPU 881290.30s WALL (    3687 calls)
     h_prec       :    544.02s CPU    548.50s WALL (  341104 calls)
     apply_dpot_b :  18143.25s CPU  18581.04s WALL (  294058 calls)
     ortho        :  14921.11s CPU  15029.15s WALL (  341872 calls)
     cgsolve      : 806509.29s CPU 812573.04s WALL (  341872 calls)
     incdrhoscf   :  30173.57s CPU  30748.00s WALL (  341872 calls)
                                        0.00s GPU  (  341872 calls)
     addusddens   :   1300.58s CPU   1317.46s WALL (    4207 calls)
     dv_of_drho   :    352.21s CPU    385.84s WALL (    3710 calls)
     mix_pot      :     39.84s CPU    107.21s WALL (    3687 calls)
     drhodv       :   4301.61s CPU   4340.99s WALL (     527 calls)
     psymdvscf    :   1694.12s CPU   1748.99s WALL (    1741 calls)
     newdq        :   1527.62s CPU   1538.08s WALL (    3687 calls)
     adddvscf     :   1007.69s CPU   1026.44s WALL (  294058 calls)
     drhodvus     :     23.33s CPU     45.31s WALL (     527 calls)

     dvqpsi_us    :  23232.49s CPU  23353.37s WALL (   49434 calls)
                                        0.00s GPU  (   49434 calls)
     dvqpsi_us_on :  18554.35s CPU  18607.43s WALL (   49434 calls)

     add_vuspsi   :  98479.30s CPU  98907.63s WALL ( 5600893 calls)
     addusdbec    :   6772.40s CPU   6810.29s WALL (  389524 calls)

     drhodvus     :     23.33s CPU     45.31s WALL (     527 calls)

      General routines
     calbec       : 187825.05s CPU 188796.95s WALL (12184524 calls)
     fft          :    815.74s CPU    878.89s WALL (  101983 calls)
     ffts         :   1708.34s CPU   1744.40s WALL (   92704 calls)
     fftw         : 290843.96s CPU 294598.49s WALL (******** calls)
     davcio       :    826.91s CPU   1254.04s WALL ( 1907013 calls)
     write_rec    :     68.12s CPU    659.87s WALL (    4214 calls)

      Additional routines
     ch_psi       : 796725.67s CPU 802653.49s WALL ( 5565929 calls)
     last         : 214622.51s CPU 215652.51s WALL ( 5565929 calls)
     Hesh         :   1314.94s CPU   1329.05s WALL ( 5565929 calls)
     ch_psi_all_k : 213220.47s CPU 214244.02s WALL ( 5565929 calls)
                                        0.00s GPU  ( 5565929 calls)
     ch_psi_calbe :  84679.36s CPU  85016.12s WALL ( 5565929 calls)
                                        0.00s GPU  ( 5565929 calls)
     h_psi_bgrp   : 482903.51s CPU 487398.04s WALL ( 5600893 calls)
     h_psi        : 482855.23s CPU 487359.50s WALL ( 5600893 calls)
     h_psi:pot    : 480496.15s CPU 484961.75s WALL ( 5600893 calls)
     h_psi:calbec :  85691.44s CPU  86158.40s WALL ( 5600893 calls)
     s_psi_bgrp   : 206383.94s CPU 207219.89s WALL (11508775 calls)
     s_psi        : 204020.63s CPU 204891.57s WALL (11508775 calls)


     PHONON       :  10d15h13m CPU  10d17h41m WALL


   This run was terminated on:   6: 1:38  23Jul2024            

=------------------------------------------------------------------------------=
   JOB DONE.
=------------------------------------------------------------------------------=
