
     Program PWSCF v.7.3.1 starts on 12Jul2024 at 12:17:12 

     This program is part of the open-source Quantum ESPRESSO suite
     for quantum simulation of materials; please cite
         "P. Giannozzi et al., J. Phys.:Condens. Matter 21 395502 (2009);
         "P. Giannozzi et al., J. Phys.:Condens. Matter 29 465901 (2017);
         "P. Giannozzi et al., J. Chem. Phys. 152 154105 (2020);
          URL http://www.quantum-espresso.org", 
     in publications or presentations arising from this work. More details at
     http://www.quantum-espresso.org/quote

     Parallel version (MPI), running on    24 processors

     MPI processes distributed on     1 nodes
     94333 MiB available memory on the printing compute node when the environment starts

     Waiting for input...
     Reading input from standard input

     Current dimensions of program PWSCF are:
     Max number of different atomic species (ntypx) = 10
     Max number of k-points (npk) =  40000
     Max angular momentum in pseudopotentials (lmaxx) =  4

     R & G space division:  proc/nbgrp/npool/nimage =      24
     Subspace diagonalization in iterative solution of the eigenvalue problem:
     a serial algorithm will be used


     Parallelization info
     --------------------
     sticks:   dense  smooth     PW     G-vecs:    dense   smooth      PW
     Min         426     213     57                22374     7913    1113
     Max         427     214     58                22377     7916    1116
     Sum       10239    5125   1391               537021   189955   26755

     Using Slab Decomposition


     Title: 
     pre-ph                                                                     


     bravais-lattice index     =            8
     lattice parameter (alat)  =      12.5069  a.u.
     unit-cell volume          =    1405.5657 (a.u.)^3
     number of atoms/cell      =           22
     number of atomic types    =            3
     number of electrons       =        48.00
     number of Kohn-Sham states=           24
     kinetic-energy cutoff     =     100.0000  Ry
     charge density cutoff     =     800.0000  Ry
     scf convergence threshold =      1.0E-10
     mixing beta               =       0.7000
     number of iterations used =            8  plain     mixing
     Exchange-correlation= PBESOL
                           (   1   4  10   8   0   0   0)

     celldm(1)=  12.506853  celldm(2)=   1.030060  celldm(3)=   0.697500
     celldm(4)=   0.000000  celldm(5)=   0.000000  celldm(6)=   0.000000

     crystal axes: (cart. coord. in units of alat)
               a(1) = (   1.000000   0.000000   0.000000 )  
               a(2) = (   0.000000   1.030060   0.000000 )  
               a(3) = (   0.000000   0.000000   0.697500 )  

     reciprocal axes: (cart. coord. in units 2 pi/alat)
               b(1) = (  1.000000  0.000000  0.000000 )  
               b(2) = (  0.000000  0.970817  0.000000 )  
               b(3) = (  0.000000  0.000000  1.433692 )  


     PseudoPot. # 1 for B  read from file:
     /home/mehlhorn/pseudos/b_pbesol_v1.4.uspp.F.UPF
     MD5 check sum: 369b69bef2c3aeed4453bd8b804fd6a8
     Pseudo is Ultrasoft + core correction, Zval =  3.0
     Generated by new atomic code, or converted to UPF format
     Using radial grid of  781 points,  4 beta functions with: 
                l(1) =   0
                l(2) =   0
                l(3) =   1
                l(4) =   1
     Q(r) pseudized with  8 coefficients,  rinner =    1.100   1.100   1.100


     PseudoPot. # 2 for Ba read from file:
     /home/mehlhorn/pseudos/Ba.nc.z_10.oncvpsp4.dojo.v4-sp.upf
     MD5 check sum: c10ed334bb677c0554edec7181ce9143
     Pseudo is Norm-conserving + core correction, Zval = 10.0
     Generated using ONCVPSP code by D. R. Hamann
     Using radial grid of 1938 points,  8 beta functions with: 
                l(1) =   0
                l(2) =   0
                l(3) =   1
                l(4) =   1
                l(5) =   2
                l(6) =   2
                l(7) =   3
                l(8) =   3

     PseudoPot. # 3 for H  read from file:
     /home/mehlhorn/pseudos/H_ONCV_PBEsol-1.0.upf
     MD5 check sum: 398ef8f67c0a7342c05c87c5e19ea467
     Pseudo is Norm-conserving, Zval =  1.0
     Generated using ONCVPSP code by D. R. Hamann
     Using radial grid of 1180 points,  2 beta functions with: 
                l(1) =   0
                l(2) =   0

     atomic species   valence    mass     pseudopotential
     B                 3.00    10.81100     B ( 1.00)
     Ba               10.00   137.32700     Ba( 1.00)
     H                 1.00     1.00794     H ( 1.00)

      4 Sym. Ops. (no inversion) found ( 2 have fractional translation)



   Cartesian axes

     site n.     atom                  positions (alat units)
         1        Ba     tau(   1) = (   0.5000000   0.5150302   0.3487551  )
         2        Ba     tau(   2) = (   0.0000000   0.0000000   0.6974951  )
         3        B      tau(   3) = (   0.6080704   0.2448729  -0.0000024  )
         4        B      tau(   4) = (   0.3919296   0.7851875  -0.0000024  )
         5        B      tau(   5) = (   0.1080704   0.2701573   0.3487524  )
         6        B      tau(   6) = (   0.8919296   0.7599031   0.3487524  )
         7        H      tau(   7) = (   0.4309800   0.3014747  -0.0000091  )
         8        H      tau(   8) = (   0.5690200   0.7285857  -0.0000091  )
         9        H      tau(   9) = (   0.9309800   0.2135555   0.3487592  )
        10        H      tau(  10) = (   0.0690200   0.8165049   0.3487592  )
        11        H      tau(  11) = (   0.7224396   0.3930677   0.0000133  )
        12        H      tau(  12) = (   0.2775604   0.6369927   0.0000133  )
        13        H      tau(  13) = (   0.2224396   0.1219625   0.3487368  )
        14        H      tau(  14) = (   0.7775604   0.9080979   0.3487368  )
        15        H      tau(  15) = (   0.6364723   0.1441236   0.5441941  )
        16        H      tau(  16) = (   0.3635277   0.8859369   0.5441941  )
        17        H      tau(  17) = (   0.1364723   0.3709067   0.5020561  )
        18        H      tau(  18) = (   0.8635277   0.6591538   0.5020561  )
        19        H      tau(  19) = (   0.3635456   0.8859294   0.1533068  )
        20        H      tau(  20) = (   0.6364544   0.1441310   0.1533068  )
        21        H      tau(  21) = (   0.8635456   0.6591612   0.1954432  )
        22        H      tau(  22) = (   0.1364544   0.3708992   0.1954432  )

     number of k points=    27
                       cart. coord. in units 2pi/alat
        k(    1) = (   0.0000000   0.0000000   0.0000000), wk =   0.0160000
        k(    2) = (   0.0000000   0.0000000   0.2867383), wk =   0.0320000
        k(    3) = (   0.0000000   0.0000000   0.5734766), wk =   0.0320000
        k(    4) = (   0.0000000   0.1941634   0.0000000), wk =   0.0320000
        k(    5) = (   0.0000000   0.1941634   0.2867383), wk =   0.0640000
        k(    6) = (   0.0000000   0.1941634   0.5734766), wk =   0.0640000
        k(    7) = (   0.0000000   0.3883267   0.0000000), wk =   0.0320000
        k(    8) = (   0.0000000   0.3883267   0.2867383), wk =   0.0640000
        k(    9) = (   0.0000000   0.3883267   0.5734766), wk =   0.0640000
        k(   10) = (   0.2000000   0.0000000   0.0000000), wk =   0.0320000
        k(   11) = (   0.2000000   0.0000000   0.2867383), wk =   0.0640000
        k(   12) = (   0.2000000   0.0000000   0.5734766), wk =   0.0640000
        k(   13) = (   0.2000000   0.1941634   0.0000000), wk =   0.0640000
        k(   14) = (   0.2000000   0.1941634   0.2867383), wk =   0.1280000
        k(   15) = (   0.2000000   0.1941634   0.5734766), wk =   0.1280000
        k(   16) = (   0.2000000   0.3883267   0.0000000), wk =   0.0640000
        k(   17) = (   0.2000000   0.3883267   0.2867383), wk =   0.1280000
        k(   18) = (   0.2000000   0.3883267   0.5734766), wk =   0.1280000
        k(   19) = (   0.4000000   0.0000000   0.0000000), wk =   0.0320000
        k(   20) = (   0.4000000   0.0000000   0.2867383), wk =   0.0640000
        k(   21) = (   0.4000000   0.0000000   0.5734766), wk =   0.0640000
        k(   22) = (   0.4000000   0.1941634   0.0000000), wk =   0.0640000
        k(   23) = (   0.4000000   0.1941634   0.2867383), wk =   0.1280000
        k(   24) = (   0.4000000   0.1941634   0.5734766), wk =   0.1280000
        k(   25) = (   0.4000000   0.3883267   0.0000000), wk =   0.0640000
        k(   26) = (   0.4000000   0.3883267   0.2867383), wk =   0.1280000
        k(   27) = (   0.4000000   0.3883267   0.5734766), wk =   0.1280000

     Dense  grid:   537021 G-vectors     FFT dimensions: ( 120, 120,  80)

     Smooth grid:   189955 G-vectors     FFT dimensions: (  80,  90,  60)

     Estimated max dynamical RAM per process >      65.80 MB

     Estimated total dynamical RAM >       1.54 GB

     Initial potential from superposition of free atoms

     starting charge      47.9682, renormalised to      48.0000
     Starting wfcs are   42 randomized atomic wfcs

     total cpu time spent up to now is       10.9 secs

     Self-consistent Calculation

     iteration #  1     ecut=   100.00 Ry     beta= 0.70
     Davidson diagonalization with overlap
     ethr =  1.00E-02,  avg # of iterations =  2.0

     total cpu time spent up to now is       24.6 secs

     total energy              =    -155.93051015 Ry
     estimated scf accuracy    <       2.07440413 Ry

     iteration #  2     ecut=   100.00 Ry     beta= 0.70
     Davidson diagonalization with overlap
     ethr =  4.32E-03,  avg # of iterations =  2.0

     total cpu time spent up to now is       37.9 secs

     total energy              =    -156.40971414 Ry
     estimated scf accuracy    <       0.36752832 Ry

     iteration #  3     ecut=   100.00 Ry     beta= 0.70
     Davidson diagonalization with overlap
     ethr =  7.66E-04,  avg # of iterations =  2.0

     total cpu time spent up to now is       51.2 secs

     total energy              =    -156.47091085 Ry
     estimated scf accuracy    <       0.00487100 Ry

     iteration #  4     ecut=   100.00 Ry     beta= 0.70
     Davidson diagonalization with overlap
     ethr =  1.01E-05,  avg # of iterations =  5.1

     total cpu time spent up to now is       70.5 secs

     total energy              =    -156.47402277 Ry
     estimated scf accuracy    <       0.00167517 Ry

     iteration #  5     ecut=   100.00 Ry     beta= 0.70
     Davidson diagonalization with overlap
     ethr =  3.49E-06,  avg # of iterations =  3.4

     total cpu time spent up to now is       84.2 secs

     total energy              =    -156.47460493 Ry
     estimated scf accuracy    <       0.00016760 Ry

     iteration #  6     ecut=   100.00 Ry     beta= 0.70
     Davidson diagonalization with overlap
     ethr =  3.49E-07,  avg # of iterations =  4.3

     total cpu time spent up to now is       99.6 secs

     total energy              =    -156.47466933 Ry
     estimated scf accuracy    <       0.00000113 Ry

     iteration #  7     ecut=   100.00 Ry     beta= 0.70
     Davidson diagonalization with overlap
     ethr =  2.35E-09,  avg # of iterations =  9.6

     total cpu time spent up to now is      131.9 secs

     total energy              =    -156.47467959 Ry
     estimated scf accuracy    <       0.00000097 Ry

     iteration #  8     ecut=   100.00 Ry     beta= 0.70
     Davidson diagonalization with overlap
     ethr =  2.02E-09,  avg # of iterations =  2.0

     total cpu time spent up to now is      145.2 secs

     total energy              =    -156.47467983 Ry
     estimated scf accuracy    <       0.00000003 Ry

     iteration #  9     ecut=   100.00 Ry     beta= 0.70
     Davidson diagonalization with overlap
     ethr =  6.93E-11,  avg # of iterations =  5.5

     total cpu time spent up to now is      162.2 secs

     total energy              =    -156.47467984 Ry
     estimated scf accuracy    <          4.9E-09 Ry

     iteration # 10     ecut=   100.00 Ry     beta= 0.70
     Davidson diagonalization with overlap
     ethr =  1.02E-11,  avg # of iterations =  3.6

     total cpu time spent up to now is      177.7 secs

     total energy              =    -156.47467984 Ry
     estimated scf accuracy    <          9.5E-10 Ry

     iteration # 11     ecut=   100.00 Ry     beta= 0.70
     Davidson diagonalization with overlap
     ethr =  1.98E-12,  avg # of iterations =  3.2

     total cpu time spent up to now is      191.4 secs

     End of self-consistent calculation

          k = 0.0000 0.0000 0.0000 ( 23753 PWs)   bands (ev):

   -23.6278 -23.6173  -9.2240  -9.1220  -8.9053  -8.8629  -8.8377  -8.7656
    -5.9140  -4.9187  -4.1672  -4.0106  -1.6175  -0.6861  -0.5889  -0.2486
     0.1604   0.2059   0.2117   0.3706   0.5005   0.9559   0.9692   1.0131

          k = 0.0000 0.0000 0.2867 ( 23700 PWs)   bands (ev):

   -23.6219 -23.6134  -9.1537  -9.0733  -9.0340  -8.9971  -8.8905  -8.8617
    -5.5444  -4.7161  -4.2979  -4.1823  -1.3318  -0.8687  -0.5267  -0.3230
    -0.1962  -0.0772   0.2342   0.4562   0.8036   0.8159   0.8349   1.0327

          k = 0.0000 0.0000 0.5735 ( 23760 PWs)   bands (ev):

   -23.6113 -23.6080  -9.3100  -9.3033  -9.0073  -8.9758  -8.8884  -8.8790
    -4.8744  -4.5279  -4.5060  -4.4695  -1.0716  -1.0054  -0.7922  -0.7595
    -0.1198  -0.0051   0.3183   0.3981   0.7385   0.7822   0.9204   0.9454

          k = 0.0000 0.1942 0.0000 ( 23715 PWs)   bands (ev):

   -23.6268 -23.6183  -9.2034  -9.0995  -8.9478  -8.8892  -8.8306  -8.7723
    -5.7721  -4.8474  -4.3855  -4.1075  -1.3507  -0.7464  -0.7372  -0.0030
     0.0745   0.0928   0.3532   0.5027   0.5874   0.7460   0.8962   0.9520

          k = 0.0000 0.1942 0.2867 ( 23747 PWs)   bands (ev):

   -23.6211 -23.6142  -9.1533  -9.0605  -9.0230  -9.0123  -8.8915  -8.8803
    -5.4447  -4.6932  -4.4228  -4.2377  -1.1597  -0.9003  -0.7016  -0.1133
    -0.0703   0.0032   0.0450   0.5630   0.7606   0.7795   0.8252   0.9121

          k = 0.0000 0.1942 0.5735 ( 23736 PWs)   bands (ev):

   -23.6109 -23.6083  -9.3226  -9.3159  -8.9818  -8.9621  -8.8884  -8.8857
    -4.9739  -4.8036  -4.3397  -4.2536  -1.0498  -0.9999  -0.8909  -0.6539
     0.0033   0.1159   0.2657   0.4099   0.6527   0.7629   0.8075   0.9248

          k = 0.0000 0.3883 0.0000 ( 23693 PWs)   bands (ev):

   -23.6242 -23.6209  -9.1420  -9.0569  -9.0251  -8.9557  -8.8123  -8.7900
    -5.3962  -4.9084  -4.6009  -4.3447  -0.9280  -0.8699  -0.6101  -0.0178
    -0.0127   0.1018   0.3677   0.5893   0.6392   0.6715   0.7483   0.8674

          k = 0.0000 0.3883 0.2867 ( 23715 PWs)   bands (ev):

   -23.6189 -23.6163  -9.1364  -9.0928  -9.0033  -8.9754  -8.9205  -8.9095
    -5.1775  -4.8356  -4.5008  -4.3697  -0.9262  -0.8905  -0.7150  -0.3001
     0.0882   0.1714   0.2561   0.4792   0.5856   0.6371   0.8464   0.8500

          k = 0.0000 0.3883 0.5735 ( 23726 PWs)   bands (ev):

   -23.6101 -23.6091  -9.3390  -9.3360  -8.9344  -8.9344  -8.9035  -8.8973
    -5.0623  -5.0067  -4.1685  -4.1226  -1.1127  -1.0923  -0.6715  -0.4883
     0.1137   0.1218   0.2961   0.3827   0.5594   0.6064   0.7710   0.8671

          k = 0.2000 0.0000 0.0000 ( 23748 PWs)   bands (ev):

   -23.6268 -23.6183  -9.1955  -9.1103  -8.9380  -8.9044  -8.8306  -8.7723
    -5.7760  -4.9266  -4.1981  -4.1332  -1.4863  -0.5399  -0.4773  -0.4427
     0.1803   0.2279   0.3280   0.3560   0.4836   0.6143   0.9679   0.9770

          k = 0.2000 0.0000 0.2867 ( 23731 PWs)   bands (ev):

   -23.6211 -23.6142  -9.1337  -9.1031  -9.0219  -8.9937  -8.9118  -8.8662
    -5.4271  -4.7046  -4.3260  -4.2882  -1.2383  -0.9083  -0.5407  -0.3462
    -0.1875   0.0271   0.3148   0.4990   0.5527   0.7645   0.9440   0.9886

          k = 0.2000 0.0000 0.5735 ( 23767 PWs)   bands (ev):

   -23.6109 -23.6083  -9.3262  -9.3203  -8.9905  -8.9566  -8.8951  -8.8797
    -4.8347  -4.6054  -4.4936  -4.4051  -1.3870  -1.1860  -0.7251  -0.4229
    -0.0742   0.2191   0.2997   0.4903   0.6469   0.7679   0.8387   0.9497

          k = 0.2000 0.1942 0.0000 ( 23720 PWs)   bands (ev):

   -23.6260 -23.6191  -9.2085  -9.0617  -9.0192  -8.8723  -8.8248  -8.7776
    -5.6628  -4.8725  -4.4173  -4.1639  -1.2566  -0.7230  -0.5824  -0.1301
     0.0448   0.1006   0.4826   0.4927   0.5640   0.6035   0.7686   0.9344

          k = 0.2000 0.1942 0.2867 ( 23739 PWs)   bands (ev):

   -23.6204 -23.6148  -9.1453  -9.0896  -9.0446  -8.9738  -8.9175  -8.8667
    -5.3417  -4.6696  -4.4821  -4.2973  -1.1175  -0.9006  -0.6984  -0.2116
    -0.0838   0.0717   0.2456   0.4977   0.5973   0.7283   0.8624   0.9563

          k = 0.2000 0.1942 0.5735 ( 23740 PWs)   bands (ev):

   -23.6107 -23.6085  -9.3371  -9.3102  -9.0038  -8.9297  -8.9030  -8.8836
    -4.9375  -4.7166  -4.4355  -4.2403  -1.3454  -1.1835  -0.6733  -0.4456
    -0.0185   0.1913   0.3165   0.4843   0.6237   0.7372   0.8061   0.9300

          k = 0.2000 0.3883 0.0000 ( 23692 PWs)   bands (ev):

   -23.6238 -23.6212  -9.1926  -9.1254  -8.9698  -8.8959  -8.8099  -8.7918
    -5.3560  -4.9621  -4.5634  -4.3530  -0.8540  -0.8204  -0.5521  -0.0537
    -0.0316   0.0517   0.2725   0.6197   0.6595   0.7029   0.7177   0.7563

          k = 0.2000 0.3883 0.2867 ( 23738 PWs)   bands (ev):

   -23.6186 -23.6165  -9.1456  -9.1160  -9.0243  -8.9766  -8.9081  -8.8778
    -5.1102  -4.8014  -4.5409  -4.4057  -0.9922  -0.8949  -0.6340  -0.3006
     0.1087   0.1566   0.2662   0.4828   0.5264   0.6530   0.8322   0.8661

          k = 0.2000 0.3883 0.5735 ( 23729 PWs)   bands (ev):

   -23.6100 -23.6092  -9.3343  -9.3182  -8.9863  -8.9436  -8.8970  -8.8865
    -4.9955  -4.9144  -4.2430  -4.1627  -1.2651  -1.2005  -0.5561  -0.4507
     0.0189   0.1556   0.3045   0.4486   0.6371   0.7117   0.7637   0.8641

          k = 0.4000 0.0000 0.0000 ( 23752 PWs)   bands (ev):

   -23.6241 -23.6209  -9.1192  -9.0689  -9.0208  -8.9921  -8.8123  -8.7900
    -5.4336  -5.0741  -4.2869  -4.2675  -1.1643  -0.7862  -0.3313   0.0070
     0.0876   0.2060   0.2548   0.3080   0.4131   0.4540   0.7704   0.8712

          k = 0.4000 0.0000 0.2867 ( 23721 PWs)   bands (ev):

   -23.6189 -23.6162  -9.1178  -9.1059  -9.0404  -8.9852  -8.9256  -8.8880
    -5.1283  -4.8020  -4.4300  -4.3924  -1.0679  -0.8532  -0.7358  -0.3492
    -0.0279   0.2140   0.2300   0.3086   0.5925   0.7103   0.9303   0.9436

          k = 0.4000 0.0000 0.5735 ( 23764 PWs)   bands (ev):

   -23.6101 -23.6091  -9.3489  -9.3464  -8.9558  -8.9303  -8.9063  -8.8883
    -4.7612  -4.6913  -4.4390  -4.3821  -1.5832  -1.5017  -0.4060  -0.2045
     0.0344   0.1692   0.3411   0.4375   0.7165   0.7618   0.8483   0.9292

          k = 0.4000 0.1942 0.0000 ( 23751 PWs)   bands (ev):

   -23.6238 -23.6212  -9.1894  -9.1229  -8.9798  -8.9048  -8.8099  -8.7918
    -5.3834  -5.0601  -4.3942  -4.2812  -1.0225  -0.7857  -0.2677  -0.0907
     0.0348   0.0657   0.1614   0.4007   0.5291   0.5863   0.7293   0.8490

          k = 0.4000 0.1942 0.2867 ( 23740 PWs)   bands (ev):

   -23.6186 -23.6165  -9.1408  -9.1200  -9.0380  -8.9862  -8.9048  -8.8738
    -5.0794  -4.7788  -4.5101  -4.4089  -1.0486  -0.8884  -0.6803  -0.3234
    -0.0182   0.2041   0.2857   0.4100   0.5473   0.6818   0.8615   0.9208

          k = 0.4000 0.1942 0.5735 ( 23749 PWs)   bands (ev):

   -23.6100 -23.6091  -9.3408  -9.3251  -8.9897  -8.9474  -8.8961  -8.8859
    -4.8191  -4.6619  -4.4694  -4.3113  -1.5224  -1.4559  -0.4172  -0.3003
     0.0340   0.1491   0.3402   0.4911   0.6859   0.7595   0.8524   0.9347

          k = 0.4000 0.3883 0.0000 ( 23731 PWs)   bands (ev):

   -23.6230 -23.6220  -9.2303  -9.2063  -8.8919  -8.8614  -8.8038  -8.7969
    -5.2464  -5.0973  -4.4720  -4.3907  -0.7443  -0.7256  -0.3764  -0.1348
    -0.0897  -0.0778   0.2480   0.4745   0.6411   0.6853   0.7087   0.7309

          k = 0.4000 0.3883 0.2867 ( 23742 PWs)   bands (ev):

   -23.6179 -23.6171  -9.1626  -9.1531  -9.0196  -8.9982  -8.8719  -8.8598
    -4.9484  -4.7972  -4.5764  -4.4931  -1.0016  -0.9314  -0.5847  -0.4311
     0.1795   0.3251   0.3403   0.4667   0.4976   0.6562   0.7238   0.8003

          k = 0.4000 0.3883 0.5735 ( 23742 PWs)   bands (ev):

   -23.6097 -23.6094  -9.3124  -9.3003  -9.0193  -8.9955  -8.8869  -8.8854
    -4.8276  -4.7569  -4.3647  -4.2924  -1.3878  -1.3593  -0.5629  -0.5483
     0.1746   0.3177   0.4245   0.4697   0.6374   0.6636   0.8421   0.8844

     highest occupied level (ev):     1.0327

!    total energy              =    -156.47467984 Ry
     estimated scf accuracy    <          4.9E-11 Ry

     The total energy is the sum of the following terms:
     one-electron contribution =     -19.95571509 Ry
     hartree contribution      =      24.74287200 Ry
     xc contribution           =     -49.17168911 Ry
     ewald contribution        =    -112.09014764 Ry

     convergence has been achieved in  11 iterations

     Writing all to output data dir ./pwscf.save/ :
     XML data file, charge density, pseudopotentials, collected wavefunctions

     init_run     :      8.87s CPU     10.46s WALL (       1 calls)
     electrons    :    179.07s CPU    180.63s WALL (       1 calls)

     Called by init_run:
     wfcinit      :      6.26s CPU      6.32s WALL (       1 calls)
     potinit      :      0.69s CPU      1.35s WALL (       1 calls)
     hinit0       :      1.06s CPU      1.90s WALL (       1 calls)

     Called by electrons:
     c_bands      :    158.45s CPU    159.56s WALL (      11 calls)
     sum_band     :     17.18s CPU     17.45s WALL (      11 calls)
     v_of_rho     :      1.36s CPU      1.42s WALL (      12 calls)
     newd         :      2.01s CPU      2.05s WALL (      12 calls)
     mix_rho      :      0.19s CPU      0.22s WALL (      11 calls)

     Called by c_bands:
     init_us_2    :      3.56s CPU      3.63s WALL (     621 calls)
     cegterg      :    140.08s CPU    141.13s WALL (     297 calls)

     Called by *egterg:
     cdiaghg      :      2.82s CPU      2.84s WALL (    1451 calls)
     h_psi        :     95.78s CPU     96.70s WALL (    1478 calls)
     s_psi        :     21.54s CPU     21.60s WALL (    1478 calls)
     g_psi        :      0.37s CPU      0.37s WALL (    1154 calls)

     Called by h_psi:
     h_psi:calbec :     19.01s CPU     19.12s WALL (    1478 calls)
     vloc_psi     :     54.55s CPU     55.30s WALL (    1478 calls)
     add_vuspsi   :     21.84s CPU     21.90s WALL (    1478 calls)

     General routines
     calbec       :     24.19s CPU     24.32s WALL (    1775 calls)
     fft          :      1.66s CPU      2.56s WALL (     154 calls)
     ffts         :      0.58s CPU      1.22s WALL (      23 calls)
     fftw         :     52.62s CPU     53.32s WALL (   58182 calls)
     interpolate  :      0.62s CPU      1.27s WALL (      12 calls)

     Parallel routines

     PWSCF        :   3m 8.78s CPU   3m12.66s WALL


   This run was terminated on:  12:20:25  12Jul2024            

=------------------------------------------------------------------------------=
   JOB DONE.
=------------------------------------------------------------------------------=
