
     Program Q2R v.7.3.1 starts on 23Jul2024 at  6: 1:38 

     This program is part of the open-source Quantum ESPRESSO suite
     for quantum simulation of materials; please cite
         "P. Giannozzi et al., J. Phys.:Condens. Matter 21 395502 (2009);
         "P. Giannozzi et al., J. Phys.:Condens. Matter 29 465901 (2017);
         "P. Giannozzi et al., J. Chem. Phys. 152 154105 (2020);
          URL http://www.quantum-espresso.org", 
     in publications or presentations arising from this work. More details at
     http://www.quantum-espresso.org/quote

     Parallel version (MPI), running on    24 processors

     MPI processes distributed on     1 nodes
     R & G space division:  proc/nbgrp/npool/nimage =      24
     71493 MiB available memory on the printing compute node when the environment starts


  reading grid info from file dyn0    

  reading force constants from file dyn1
 macroscopic fields = T
   3.15786   0.00000   0.00000
   0.00000   3.21847   0.00000
   0.00000   0.00000   3.34812
  na=            1
   2.50446  -0.04277   0.00000
   0.28781   2.52285  -0.00000
   0.00000   0.00000   2.95447
  na=            2
   2.50446   0.04277   0.00000
  -0.28781   2.52285  -0.00000
   0.00000   0.00000   2.95447
  na=            3
  -0.14892   0.03259  -0.00002
   0.17488  -0.04583   0.00005
   0.00001   0.00003  -0.20226
  na=            4
  -0.14892   0.03259   0.00002
   0.17488  -0.04583  -0.00005
  -0.00001  -0.00003  -0.20226
  na=            5
  -0.14892  -0.03259   0.00002
  -0.17488  -0.04583   0.00005
  -0.00001   0.00003  -0.20226
  na=            6
  -0.14892  -0.03259  -0.00002
  -0.17488  -0.04583  -0.00005
   0.00001  -0.00003  -0.20226
  na=            7
  -0.42630   0.13516  -0.00001
   0.14249  -0.25210   0.00001
  -0.00002   0.00001  -0.24695
  na=            8
  -0.42630   0.13516   0.00001
   0.14249  -0.25210  -0.00001
   0.00002  -0.00001  -0.24695
  na=            9
  -0.42630  -0.13516   0.00001
  -0.14249  -0.25210   0.00001
   0.00002   0.00001  -0.24695
  na=           10
  -0.42630  -0.13516  -0.00001
  -0.14249  -0.25210  -0.00001
  -0.00002  -0.00001  -0.24695
  na=           11
  -0.27265  -0.04378   0.00000
  -0.11298  -0.42851  -0.00004
   0.00001  -0.00003  -0.24340
  na=           12
  -0.27265  -0.04378  -0.00000
  -0.11298  -0.42851   0.00004
  -0.00001   0.00003  -0.24340
  na=           13
  -0.27265   0.04378  -0.00000
   0.11298  -0.42851  -0.00004
  -0.00001  -0.00003  -0.24340
  na=           14
  -0.27265   0.04378   0.00000
   0.11298  -0.42851   0.00004
   0.00001   0.00003  -0.24340
  na=           15
  -0.20235   0.14531   0.05885
   0.09651  -0.26694  -0.09281
   0.01935  -0.11099  -0.39208
  na=           16
  -0.20235   0.14531  -0.05885
   0.09651  -0.26694   0.09281
  -0.01935   0.11099  -0.39208
  na=           17
  -0.20235  -0.14531  -0.05885
  -0.09651  -0.26694  -0.09281
  -0.01935  -0.11099  -0.39208
  na=           18
  -0.20235  -0.14531   0.05885
  -0.09651  -0.26694   0.09281
   0.01935   0.11099  -0.39208
  na=           19
  -0.20231   0.14529   0.05882
   0.09648  -0.26694  -0.09282
   0.01933  -0.11099  -0.39215
  na=           20
  -0.20231   0.14529  -0.05882
   0.09648  -0.26694   0.09282
  -0.01933   0.11099  -0.39215
  na=           21
  -0.20231  -0.14529  -0.05882
  -0.09648  -0.26694  -0.09282
  -0.01933  -0.11099  -0.39215
  na=           22
  -0.20231  -0.14529   0.05882
  -0.09648  -0.26694   0.09282
   0.01933   0.11099  -0.39215
  Norm of the difference between old and new effective charges:    0.00102615600034719132
  nqs=            1
 q=   0.00000000  0.00000000  0.00000000
  reading force constants from file dyn2
  nqs=            2
 q=   0.00000000  0.00000000  0.47789718
 q=   0.00000000  0.00000000 -0.47789718
  reading force constants from file dyn3
  nqs=            2
 q=   0.00000000  0.32360561  0.00000000
 q=   0.00000000 -0.32360561  0.00000000
  reading force constants from file dyn4
  nqs=            4
 q=   0.00000000  0.32360561  0.47789718
 q=   0.00000000  0.32360561 -0.47789718
 q=   0.00000000 -0.32360561 -0.47789718
 q=   0.00000000 -0.32360561  0.47789718
  reading force constants from file dyn5
  nqs=            2
 q=   0.33333333  0.00000000  0.00000000
 q=  -0.33333333  0.00000000  0.00000000
  reading force constants from file dyn6
  nqs=            4
 q=   0.33333333  0.00000000  0.47789718
 q=   0.33333333  0.00000000 -0.47789718
 q=  -0.33333333  0.00000000 -0.47789718
 q=  -0.33333333  0.00000000  0.47789718
  reading force constants from file dyn7
  nqs=            4
 q=   0.33333333  0.32360561  0.00000000
 q=   0.33333333 -0.32360561  0.00000000
 q=  -0.33333333  0.32360561  0.00000000
 q=  -0.33333333 -0.32360561  0.00000000
  reading force constants from file dyn8
  nqs=            8
 q=   0.33333333  0.32360561  0.47789718
 q=  -0.33333333 -0.32360561 -0.47789718
 q=   0.33333333 -0.32360561 -0.47789718
 q=  -0.33333333  0.32360561  0.47789718
 q=  -0.33333333  0.32360561 -0.47789718
 q=   0.33333333 -0.32360561  0.47789718
 q=  -0.33333333 -0.32360561  0.47789718
 q=   0.33333333  0.32360561 -0.47789718

      q-space grid ok, #points =   27

      fft-check success (sum of imaginary terms < 10^-12)

     Q2R          :      3.07s CPU      3.13s WALL


   This run was terminated on:   6: 1:41  23Jul2024            

=------------------------------------------------------------------------------=
   JOB DONE.
=------------------------------------------------------------------------------=
