
     Program PWSCF v.7.3.1 starts on 11Jul2024 at 15:30:39 

     This program is part of the open-source Quantum ESPRESSO suite
     for quantum simulation of materials; please cite
         "P. Giannozzi et al., J. Phys.:Condens. Matter 21 395502 (2009);
         "P. Giannozzi et al., J. Phys.:Condens. Matter 29 465901 (2017);
         "P. Giannozzi et al., J. Chem. Phys. 152 154105 (2020);
          URL http://www.quantum-espresso.org", 
     in publications or presentations arising from this work. More details at
     http://www.quantum-espresso.org/quote

     Parallel version (MPI), running on    24 processors

     MPI processes distributed on     1 nodes
     94416 MiB available memory on the printing compute node when the environment starts

     Waiting for input...
     Reading input from standard input

     Current dimensions of program PWSCF are:
     Max number of different atomic species (ntypx) = 10
     Max number of k-points (npk) =  40000
     Max angular momentum in pseudopotentials (lmaxx) =  4

     R & G space division:  proc/nbgrp/npool/nimage =      24
     Subspace diagonalization in iterative solution of the eigenvalue problem:
     a serial algorithm will be used


     Parallelization info
     --------------------
     sticks:   dense  smooth     PW     G-vecs:    dense   smooth      PW
     Min         428     213     58                22372     7913    1144
     Max         430     214     59                22373     7916    1147
     Sum       10275    5131   1415               536929   189961   27483

     Using Slab Decomposition


     Title: 
     volume variation                                                           


     bravais-lattice index     =            8
     lattice parameter (alat)  =      12.5558  a.u.
     unit-cell volume          =    1405.5657 (a.u.)^3
     number of atoms/cell      =           22
     number of atomic types    =            3
     number of electrons       =        48.00
     number of Kohn-Sham states=           24
     kinetic-energy cutoff     =     100.0000  Ry
     charge density cutoff     =     800.0000  Ry
     scf convergence threshold =      1.0E-10
     mixing beta               =       0.7000
     number of iterations used =            8  plain     mixing
     energy convergence thresh.=      1.0E-05
     force convergence thresh. =      1.0E-05
     press convergence thresh. =      5.0E-01
     Exchange-correlation= PBESOL
                           (   1   4  10   8   0   0   0)
     nstep                     =          100


     celldm(1)=  12.555789  celldm(2)=   1.025571  celldm(3)=   0.692394
     celldm(4)=   0.000000  celldm(5)=   0.000000  celldm(6)=   0.000000

     crystal axes: (cart. coord. in units of alat)
               a(1) = (   1.000000   0.000000   0.000000 )  
               a(2) = (   0.000000   1.025571   0.000000 )  
               a(3) = (   0.000000   0.000000   0.692394 )  

     reciprocal axes: (cart. coord. in units 2 pi/alat)
               b(1) = (  1.000000  0.000000  0.000000 )  
               b(2) = (  0.000000  0.975067  0.000000 )  
               b(3) = (  0.000000  0.000000  1.444264 )  


     PseudoPot. # 1 for B  read from file:
     /home/mehlhorn/pseudos/b_pbesol_v1.4.uspp.F.UPF
     MD5 check sum: 369b69bef2c3aeed4453bd8b804fd6a8
     Pseudo is Ultrasoft + core correction, Zval =  3.0
     Generated by new atomic code, or converted to UPF format
     Using radial grid of  781 points,  4 beta functions with: 
                l(1) =   0
                l(2) =   0
                l(3) =   1
                l(4) =   1
     Q(r) pseudized with  8 coefficients,  rinner =    1.100   1.100   1.100


     PseudoPot. # 2 for Ba read from file:
     /home/mehlhorn/pseudos/Ba.nc.z_10.oncvpsp4.dojo.v4-sp.upf
     MD5 check sum: c10ed334bb677c0554edec7181ce9143
     Pseudo is Norm-conserving + core correction, Zval = 10.0
     Generated using ONCVPSP code by D. R. Hamann
     Using radial grid of 1938 points,  8 beta functions with: 
                l(1) =   0
                l(2) =   0
                l(3) =   1
                l(4) =   1
                l(5) =   2
                l(6) =   2
                l(7) =   3
                l(8) =   3

     PseudoPot. # 3 for H  read from file:
     /home/mehlhorn/pseudos/H_ONCV_PBEsol-1.0.upf
     MD5 check sum: 398ef8f67c0a7342c05c87c5e19ea467
     Pseudo is Norm-conserving, Zval =  1.0
     Generated using ONCVPSP code by D. R. Hamann
     Using radial grid of 1180 points,  2 beta functions with: 
                l(1) =   0
                l(2) =   0

     atomic species   valence    mass     pseudopotential
     B                 3.00    10.81100     B ( 1.00)
     Ba               10.00   137.32700     Ba( 1.00)
     H                 1.00     1.00794     H ( 1.00)

      4 Sym. Ops. (no inversion) found ( 2 have fractional translation)



   Cartesian axes

     site n.     atom                  positions (alat units)
         1        Ba     tau(   1) = (   0.5000000   0.5127855   0.3462657  )
         2        Ba     tau(   2) = (   0.0000000   0.0000000   0.6923255  )
         3        B      tau(   3) = (   0.6102570   0.2453190   0.0000455  )
         4        B      tau(   4) = (   0.3897430   0.7802519   0.0000455  )
         5        B      tau(   5) = (   0.1102570   0.2674665   0.3461516  )
         6        B      tau(   6) = (   0.8897430   0.7581045   0.3461516  )
         7        H      tau(   7) = (   0.4340973   0.2996264   0.0001599  )
         8        H      tau(   8) = (   0.5659027   0.7259445   0.0001599  )
         9        H      tau(   9) = (   0.9340973   0.2131590   0.3460372  )
        10        H      tau(  10) = (   0.0659027   0.8124119   0.3460372  )
        11        H      tau(  11) = (   0.7220603   0.3933629  -0.0000058  )
        12        H      tau(  12) = (   0.2779397   0.6322081  -0.0000058  )
        13        H      tau(  13) = (   0.2220603   0.1194226   0.3462029  )
        14        H      tau(  14) = (   0.7779397   0.9061483   0.3462029  )
        15        H      tau(  15) = (   0.6392499   0.1457279   0.5404125  )
        16        H      tau(  16) = (   0.3607501   0.8798430   0.5404125  )
        17        H      tau(  17) = (   0.1392499   0.3670576   0.4981787  )
        18        H      tau(  18) = (   0.8607501   0.6585133   0.4981787  )
        19        H      tau(  19) = (   0.3605328   0.8798946   0.1519977  )
        20        H      tau(  20) = (   0.6394672   0.1456763   0.1519977  )
        21        H      tau(  21) = (   0.8605328   0.6584617   0.1941994  )
        22        H      tau(  22) = (   0.1394672   0.3671092   0.1941994  )

     number of k points=    27
                       cart. coord. in units 2pi/alat
        k(    1) = (   0.0000000   0.0000000   0.0000000), wk =   0.0312500
        k(    2) = (   0.0000000   0.0000000   0.3610660), wk =   0.0625000
        k(    3) = (   0.0000000   0.0000000  -0.7221320), wk =   0.0312500
        k(    4) = (   0.0000000   0.2437667   0.0000000), wk =   0.0625000
        k(    5) = (   0.0000000   0.2437667   0.3610660), wk =   0.1250000
        k(    6) = (   0.0000000   0.2437667  -0.7221320), wk =   0.0625000
        k(    7) = (   0.0000000  -0.4875333   0.0000000), wk =   0.0312500
        k(    8) = (   0.0000000  -0.4875333   0.3610660), wk =   0.0625000
        k(    9) = (   0.0000000  -0.4875333  -0.7221320), wk =   0.0312500
        k(   10) = (   0.2500000   0.0000000   0.0000000), wk =   0.0625000
        k(   11) = (   0.2500000   0.0000000   0.3610660), wk =   0.1250000
        k(   12) = (   0.2500000   0.0000000  -0.7221320), wk =   0.0625000
        k(   13) = (   0.2500000   0.2437667   0.0000000), wk =   0.1250000
        k(   14) = (   0.2500000   0.2437667   0.3610660), wk =   0.2500000
        k(   15) = (   0.2500000   0.2437667  -0.7221320), wk =   0.1250000
        k(   16) = (   0.2500000  -0.4875333   0.0000000), wk =   0.0625000
        k(   17) = (   0.2500000  -0.4875333   0.3610660), wk =   0.1250000
        k(   18) = (   0.2500000  -0.4875333  -0.7221320), wk =   0.0625000
        k(   19) = (  -0.5000000   0.0000000   0.0000000), wk =   0.0312500
        k(   20) = (  -0.5000000   0.0000000   0.3610660), wk =   0.0625000
        k(   21) = (  -0.5000000   0.0000000  -0.7221320), wk =   0.0312500
        k(   22) = (  -0.5000000   0.2437667   0.0000000), wk =   0.0625000
        k(   23) = (  -0.5000000   0.2437667   0.3610660), wk =   0.1250000
        k(   24) = (  -0.5000000   0.2437667  -0.7221320), wk =   0.0625000
        k(   25) = (  -0.5000000  -0.4875333   0.0000000), wk =   0.0312500
        k(   26) = (  -0.5000000  -0.4875333   0.3610660), wk =   0.0625000
        k(   27) = (  -0.5000000  -0.4875333  -0.7221320), wk =   0.0312500

     Dense  grid:   536929 G-vectors     FFT dimensions: ( 120, 120,  80)

     Smooth grid:   189961 G-vectors     FFT dimensions: (  80,  90,  60)

     Estimated max dynamical RAM per process >      89.98 MB

     Estimated total dynamical RAM >       2.11 GB

     Initial potential from superposition of free atoms

     starting charge      47.9682, renormalised to      48.0000
     Starting wfcs are   42 randomized atomic wfcs

     total cpu time spent up to now is       11.5 secs

     Self-consistent Calculation

     iteration #  1     ecut=   100.00 Ry     beta= 0.70
     Davidson diagonalization with overlap
     ethr =  1.00E-02,  avg # of iterations =  2.0

     total cpu time spent up to now is       25.7 secs

     total energy              =    -155.91772831 Ry
     estimated scf accuracy    <       2.12201333 Ry

     iteration #  2     ecut=   100.00 Ry     beta= 0.70
     Davidson diagonalization with overlap
     ethr =  4.42E-03,  avg # of iterations =  2.0

     total cpu time spent up to now is       39.4 secs

     total energy              =    -156.40837589 Ry
     estimated scf accuracy    <       0.37222818 Ry

     iteration #  3     ecut=   100.00 Ry     beta= 0.70
     Davidson diagonalization with overlap
     ethr =  7.75E-04,  avg # of iterations =  2.0

     total cpu time spent up to now is       53.0 secs

     total energy              =    -156.47036182 Ry
     estimated scf accuracy    <       0.00493244 Ry

     iteration #  4     ecut=   100.00 Ry     beta= 0.70
     Davidson diagonalization with overlap
     ethr =  1.03E-05,  avg # of iterations =  5.1

     total cpu time spent up to now is       72.7 secs

     total energy              =    -156.47352059 Ry
     estimated scf accuracy    <       0.00166762 Ry

     iteration #  5     ecut=   100.00 Ry     beta= 0.70
     Davidson diagonalization with overlap
     ethr =  3.47E-06,  avg # of iterations =  3.1

     total cpu time spent up to now is       86.8 secs

     total energy              =    -156.47409801 Ry
     estimated scf accuracy    <       0.00016391 Ry

     iteration #  6     ecut=   100.00 Ry     beta= 0.70
     Davidson diagonalization with overlap
     ethr =  3.41E-07,  avg # of iterations =  4.0

     total cpu time spent up to now is      102.4 secs

     total energy              =    -156.47416092 Ry
     estimated scf accuracy    <       0.00000106 Ry

     iteration #  7     ecut=   100.00 Ry     beta= 0.70
     Davidson diagonalization with overlap
     ethr =  2.20E-09,  avg # of iterations =  9.2

     total cpu time spent up to now is      134.3 secs

     total energy              =    -156.47416931 Ry
     estimated scf accuracy    <       0.00000095 Ry

     iteration #  8     ecut=   100.00 Ry     beta= 0.70
     Davidson diagonalization with overlap
     ethr =  1.99E-09,  avg # of iterations =  2.0

     total cpu time spent up to now is      148.0 secs

     total energy              =    -156.47416957 Ry
     estimated scf accuracy    <       0.00000006 Ry

     iteration #  9     ecut=   100.00 Ry     beta= 0.70
     Davidson diagonalization with overlap
     ethr =  1.25E-10,  avg # of iterations =  4.3

     total cpu time spent up to now is      163.9 secs

     total energy              =    -156.47416959 Ry
     estimated scf accuracy    <          3.5E-09 Ry

     iteration # 10     ecut=   100.00 Ry     beta= 0.70
     Davidson diagonalization with overlap
     ethr =  7.26E-12,  avg # of iterations =  5.2

     total cpu time spent up to now is      181.7 secs

     total energy              =    -156.47416959 Ry
     estimated scf accuracy    <          1.6E-09 Ry

     iteration # 11     ecut=   100.00 Ry     beta= 0.70
     Davidson diagonalization with overlap
     ethr =  3.26E-12,  avg # of iterations =  2.3

     total cpu time spent up to now is      195.4 secs

     End of self-consistent calculation

          k = 0.0000 0.0000 0.0000 ( 23753 PWs)   bands (ev):

   -23.6245 -23.6140  -9.2316  -9.1312  -8.9089  -8.8642  -8.8364  -8.7641
    -5.9401  -4.9573  -4.1996  -4.0594  -1.6296  -0.7013  -0.5974  -0.2689
     0.1264   0.1546   0.2129   0.3202   0.4944   0.9215   0.9330   0.9763

          k = 0.0000 0.0000 0.3611 ( 23738 PWs)   bands (ev):

   -23.6155 -23.6080  -9.1244  -9.1238  -9.0987  -9.0553  -8.8880  -8.8634
    -5.3936  -4.6650  -4.3974  -4.3119  -1.2219  -0.9597  -0.5044  -0.4548
    -0.2958  -0.1680   0.2127   0.5123   0.7024   0.7528   0.8360   0.9852

          k = 0.0000 0.0000-0.7221 ( 23760 PWs)   bands (ev):

   -23.6042 -23.6042  -9.3695  -9.3693  -8.9597  -8.9596  -8.8973  -8.8973
    -4.6404  -4.6399  -4.5835  -4.5829  -0.9860  -0.9855  -0.9749  -0.9732
     0.1090   0.1099   0.2165   0.2182   0.8017   0.8020   0.8168   0.8170

          k = 0.0000 0.2438 0.0000 ( 23709 PWs)   bands (ev):

   -23.6229 -23.6155  -9.1991  -9.0962  -8.9725  -8.9054  -8.8256  -8.7744
    -5.7233  -4.8571  -4.5103  -4.2022  -1.2442  -0.7931  -0.7751   0.0269
     0.0502   0.0649   0.3714   0.5022   0.5787   0.5910   0.8289   0.9037

          k = 0.0000 0.2438 0.3611 ( 23733 PWs)   bands (ev):

   -23.6144 -23.6091  -9.1769  -9.1338  -9.0393  -9.0228  -8.8994  -8.8890
    -5.2844  -4.7463  -4.4384  -4.3516  -1.0267  -0.9849  -0.7969  -0.1984
    -0.1543   0.0410   0.0580   0.5678   0.6370   0.6944   0.7986   0.8570

          k = 0.0000 0.2438-0.7221 ( 23716 PWs)   bands (ev):

   -23.6042 -23.6042  -9.3847  -9.3846  -8.9379  -8.9379  -8.8963  -8.8963
    -4.9679  -4.9679  -4.2419  -4.2419  -1.1199  -1.1192  -0.7817  -0.7809
     0.1934   0.1936   0.2520   0.2536   0.6179   0.6180   0.8100   0.8103

          k = 0.0000-0.4875 0.0000 ( 23724 PWs)   bands (ev):

   -23.6192 -23.6192  -9.1055  -9.1055  -8.9991  -8.9991  -8.7998  -8.7998
    -5.1872  -5.1872  -4.5158  -4.5158  -0.9215  -0.9215  -0.2875  -0.2875
    -0.0383  -0.0383   0.4900   0.4900   0.6315   0.6315   0.7529   0.7529

          k = 0.0000-0.4875 0.3611 ( 23726 PWs)   bands (ev):

   -23.6117 -23.6117  -9.1769  -9.1769  -8.9724  -8.9724  -8.9351  -8.9351
    -5.0137  -5.0137  -4.4217  -4.4217  -0.9704  -0.9704  -0.5524  -0.5524
     0.1023   0.1023   0.3940   0.3940   0.5484   0.5484   0.7716   0.7716

          k = 0.0000-0.4875-0.7221 ( 23740 PWs)   bands (ev):

   -23.6042 -23.6042  -9.3987  -9.3987  -8.9193  -8.9193  -8.8933  -8.8933
    -5.1123  -5.1123  -4.0837  -4.0837  -1.2162  -1.2162  -0.5150  -0.5150
     0.1084   0.1084   0.3261   0.3261   0.4144   0.4144   0.8480   0.8480

          k = 0.2500 0.0000 0.0000 ( 23732 PWs)   bands (ev):

   -23.6229 -23.6155  -9.1874  -9.1108  -8.9595  -8.9263  -8.8256  -8.7744
    -5.7325  -4.9788  -4.2485  -4.2296  -1.4294  -0.5420  -0.5132  -0.3978
     0.1747   0.2178   0.2793   0.3463   0.4489   0.4760   0.8820   0.9176

          k = 0.2500 0.0000 0.3611 ( 23742 PWs)   bands (ev):

   -23.6144 -23.6091  -9.1671  -9.1473  -9.0717  -8.9956  -8.9178  -8.8754
    -5.2348  -4.6409  -4.4516  -4.4356  -1.1935  -0.9447  -0.7991  -0.2475
    -0.2418   0.0545   0.2836   0.4233   0.5729   0.7023   0.9030   0.9348

          k = 0.2500 0.0000-0.7221 ( 23774 PWs)   bands (ev):

   -23.6042 -23.6042  -9.3904  -9.3902  -8.9434  -8.9433  -8.8936  -8.8936
    -4.7552  -4.7549  -4.4340  -4.4336  -1.4784  -1.4779  -0.5027  -0.5022
     0.1080   0.1085   0.4666   0.4680   0.5938   0.5938   0.8462   0.8466

          k = 0.2500 0.2438 0.0000 ( 23729 PWs)   bands (ev):

   -23.6218 -23.6166  -9.2198  -9.0835  -9.0208  -8.8719  -8.8178  -8.7816
    -5.5833  -4.9331  -4.5160  -4.2568  -1.1252  -0.7716  -0.5595  -0.0820
    -0.0117   0.0416   0.3575   0.5117   0.5235   0.6120   0.6770   0.8327

          k = 0.2500 0.2438 0.3611 ( 23728 PWs)   bands (ev):

   -23.6136 -23.6098  -9.1704  -9.1245  -9.1154  -8.9720  -8.9315  -8.8671
    -5.1435  -4.6893  -4.5305  -4.4317  -1.1575  -0.9134  -0.8084  -0.2340
    -0.0756   0.1110   0.2147   0.4462   0.5473   0.6638   0.8223   0.9117

          k = 0.2500 0.2438-0.7221 ( 23764 PWs)   bands (ev):

   -23.6042 -23.6042  -9.3981  -9.3711  -8.9691  -8.9215  -8.9025  -8.8940
    -4.9834  -4.7774  -4.4022  -4.1898  -1.4543  -1.3647  -0.5808  -0.4551
     0.0543   0.0593   0.4342   0.5086   0.5996   0.6534   0.7933   0.8211

          k = 0.2500-0.4875 0.0000 ( 23696 PWs)   bands (ev):

   -23.6192 -23.6192  -9.1917  -9.1917  -8.9124  -8.9124  -8.7993  -8.7993
    -5.2014  -5.2014  -4.4881  -4.4881  -0.8277  -0.8277  -0.2970  -0.2970
    -0.0804  -0.0804   0.4170   0.4170   0.6737   0.6737   0.6869   0.6869

          k = 0.2500-0.4875 0.3611 ( 23708 PWs)   bands (ev):

   -23.6117 -23.6117  -9.1637  -9.1637  -9.0462  -9.0462  -8.8836  -8.8836
    -4.9177  -4.9177  -4.4953  -4.4953  -1.0661  -1.0661  -0.4655  -0.4655
     0.0703   0.0703   0.4094   0.4094   0.5622   0.5622   0.7932   0.7932

          k = 0.2500-0.4875-0.7221 ( 23732 PWs)   bands (ev):

   -23.6042 -23.6042  -9.3801  -9.3801  -8.9481  -8.9481  -8.9010  -8.9010
    -4.9906  -4.9906  -4.1730  -4.1730  -1.3344  -1.3344  -0.5806  -0.5806
     0.1772   0.1772   0.3099   0.3099   0.6517   0.6517   0.8086   0.8086

          k =-0.5000 0.0000 0.0000 ( 23768 PWs)   bands (ev):

   -23.6192 -23.6192  -9.0780  -9.0780  -9.0371  -9.0371  -8.7998  -8.7998
    -5.2736  -5.2736  -4.3331  -4.3331  -0.9878  -0.9878  -0.1625  -0.1625
     0.2196   0.2196   0.2311   0.2311   0.3242   0.3242   0.7620   0.7620

          k =-0.5000 0.0000 0.3611 ( 23714 PWs)   bands (ev):

   -23.6117 -23.6117  -9.1820  -9.1820  -8.9980  -8.9980  -8.9179  -8.9179
    -4.8635  -4.8635  -4.5157  -4.5157  -1.1201  -1.1201  -0.5312  -0.5312
     0.0740   0.0740   0.2735   0.2735   0.6653   0.6653   0.8904   0.8904

          k =-0.5000 0.0000-0.7221 ( 23772 PWs)   bands (ev):

   -23.6042 -23.6042  -9.4096  -9.4096  -8.9299  -8.9299  -8.8885  -8.8885
    -4.8090  -4.8090  -4.3422  -4.3422  -1.7002  -1.7002  -0.1817  -0.1817
     0.1071   0.1071   0.2767   0.2767   0.7926   0.7926   0.7973   0.7973

          k =-0.5000 0.2438 0.0000 ( 23752 PWs)   bands (ev):

   -23.6191 -23.6191  -9.1899  -9.1899  -8.9195  -8.9195  -8.7993  -8.7993
    -5.2469  -5.2469  -4.3945  -4.3945  -0.8760  -0.8760  -0.1692  -0.1692
    -0.0105  -0.0105   0.1886   0.1886   0.5788   0.5788   0.7422   0.7422

          k =-0.5000 0.2438 0.3611 ( 23740 PWs)   bands (ev):

   -23.6117 -23.6117  -9.1670  -9.1670  -9.0508  -9.0508  -8.8823  -8.8823
    -4.8207  -4.8207  -4.5638  -4.5638  -1.1263  -1.1263  -0.4990  -0.4990
     0.1086   0.1086   0.3205   0.3205   0.6577   0.6577   0.8188   0.8188

          k =-0.5000 0.2438-0.7221 ( 23760 PWs)   bands (ev):

   -23.6042 -23.6042  -9.3861  -9.3861  -8.9511  -8.9511  -8.9002  -8.9002
    -4.8201  -4.8201  -4.3210  -4.3210  -1.5896  -1.5896  -0.4054  -0.4054
     0.1520   0.1520   0.3565   0.3565   0.7188   0.7188   0.8660   0.8660

          k =-0.5000-0.4875 0.0000 ( 23692 PWs)   bands (ev):

   -23.6191 -23.6191  -9.2421  -9.2421  -8.8616  -8.8616  -8.7989  -8.7989
    -5.2168  -5.2168  -4.4580  -4.4580  -0.7178  -0.7178  -0.3241  -0.3241
    -0.1182  -0.1182   0.3797   0.3797   0.5846   0.5846   0.7116   0.7116

          k =-0.5000-0.4875 0.3611 ( 23752 PWs)   bands (ev):

   -23.6116 -23.6116  -9.1370  -9.1370  -9.1037  -9.1037  -8.8616  -8.8616
    -4.7518  -4.7518  -4.6375  -4.6375  -1.1154  -1.1154  -0.5363  -0.5363
     0.2668   0.2668   0.4074   0.4074   0.5569   0.5569   0.7281   0.7281

          k =-0.5000-0.4875-0.7221 ( 23752 PWs)   bands (ev):

   -23.6041 -23.6041  -9.3591  -9.3591  -8.9794  -8.9794  -8.9082  -8.9082
    -4.8311  -4.8311  -4.2995  -4.2995  -1.4214  -1.4214  -0.7149  -0.7149
     0.3882   0.3882   0.4348   0.4348   0.5817   0.5817   0.8298   0.8298

     highest occupied level (ev):     0.9852

!    total energy              =    -156.47416959 Ry
     estimated scf accuracy    <          3.6E-11 Ry

     The total energy is the sum of the following terms:
     one-electron contribution =     -20.63619328 Ry
     hartree contribution      =      25.08177170 Ry
     xc contribution           =     -49.22291817 Ry
     ewald contribution        =    -111.69682985 Ry

     convergence has been achieved in  11 iterations

     Forces acting on atoms (cartesian axes, Ry/au):

     atom    1 type  2   force =     0.00000000    0.00000000    0.00001403
     atom    2 type  2   force =     0.00000000    0.00000000   -0.00001403
     atom    3 type  1   force =    -0.00010266   -0.00049567   -0.00001200
     atom    4 type  1   force =     0.00010266    0.00049567   -0.00001200
     atom    5 type  1   force =    -0.00010266    0.00049567    0.00001200
     atom    6 type  1   force =     0.00010266   -0.00049567    0.00001200
     atom    7 type  3   force =    -0.00413082    0.00103886   -0.00001528
     atom    8 type  3   force =     0.00413082   -0.00103886   -0.00001528
     atom    9 type  3   force =    -0.00413082   -0.00103886    0.00001528
     atom   10 type  3   force =     0.00413082    0.00103886    0.00001528
     atom   11 type  3   force =     0.00272547    0.00329635    0.00000492
     atom   12 type  3   force =    -0.00272547   -0.00329635    0.00000492
     atom   13 type  3   force =     0.00272547   -0.00329635   -0.00000492
     atom   14 type  3   force =    -0.00272547    0.00329635   -0.00000492
     atom   15 type  3   force =     0.00053131   -0.00243408   -0.00368637
     atom   16 type  3   force =    -0.00053131    0.00243408   -0.00368637
     atom   17 type  3   force =     0.00053131    0.00243408    0.00368637
     atom   18 type  3   force =    -0.00053131   -0.00243408    0.00368637
     atom   19 type  3   force =    -0.00048794    0.00241469    0.00367549
     atom   20 type  3   force =     0.00048794   -0.00241469    0.00367549
     atom   21 type  3   force =    -0.00048794   -0.00241469   -0.00367549
     atom   22 type  3   force =     0.00048794    0.00241469   -0.00367549

     Total force =     0.017443     Total SCF correction =     0.000003


     Computing stress (Cartesian axis) and pressure

          total   stress  (Ry/bohr**3)                   (kbar)     P=        9.47
   0.00005981   0.00000000   0.00000000            8.80        0.00        0.00
   0.00000000   0.00006103   0.00000000            0.00        8.98        0.00
   0.00000000   0.00000000   0.00007237            0.00        0.00       10.65

     Volume is kept fixed: isostatic pressure set to zero

     BFGS Geometry Optimization
     Energy error            =      0.0E+00 Ry
     Gradient error          =      4.1E-03 Ry/Bohr
     Cell gradient error     =      1.2E+00 kbar

     number of scf cycles    =   1
     number of bfgs steps    =   0

     enthalpy           new  =    -156.4741695895 Ry

     new trust radius        =       0.0044493131 bohr
ibrav =      8
 celldm(1) =     12.55434651
 celldm(2) =      1.02560231
 celldm(3) =      0.69261172
Input lattice vectors:
     0.99988508     0.00000000     0.00000000
     0.00000000     1.02548445     0.00000000
     0.00000000     0.00000000     0.69253213
New lattice vectors in INITIAL alat:
     0.99988508     0.00000000     0.00000000
     0.00000000     1.02548445     0.00000000
     0.00000000     0.00000000     0.69253213
New lattice vectors in NEW alat (for information only):
     1.00000000     0.00000000     0.00000000
     0.00000000     1.02560231     0.00000000
     0.00000000     0.00000000     0.69261172
Discrepancy in bohr =     0.000000    0.000000    0.000000
     new conv_thr            =            1.0E-10 Ry

     new unit-cell volume =   1405.56573 a.u.^3 (   208.28335 Ang^3 )
     density =      2.66301 g/cm^3

CELL_PARAMETERS (alat= 12.55578938)
   0.999885083   0.000000000   0.000000000
   0.000000000   1.025484448   0.000000000
   0.000000000   0.000000000   0.692532130

ATOMIC_POSITIONS (crystal)
Ba               0.5000000000        0.5000000000        0.5001007794
Ba               0.0000000000        0.0000000000        0.9998992206
B                0.6102488400        0.2391638868        0.0000642768
B                0.3897511600        0.7608361132        0.0000642768
B                0.1102488400        0.2608361132        0.4999357232
B                0.8897511600        0.7391638868        0.4999357232
H                0.4337682554        0.2922364054        0.0002291755
H                0.5662317446        0.7077635946        0.0002291755
H                0.9337682554        0.2077635946        0.4997708245
H                0.0662317446        0.7922364054        0.4997708245
H                0.7222773368        0.3838109998       -0.0000078052
H                0.2777226632        0.6161890002       -0.0000078052
H                0.2222773368        0.1161890002        0.5000078052
H                0.7777226632        0.8838109998        0.5000078052
H                0.6392922408        0.1419053674        0.7800743787
H                0.3607077592        0.8580946326        0.7800743787
H                0.1392922408        0.3580946326        0.7199256213
H                0.8607077592        0.6419053674        0.7199256213
H                0.3604939687        0.8581434363        0.2199476311
H                0.6395060313        0.1418565637        0.2199476311
H                0.8604939687        0.6418565637        0.2800523689
H                0.1395060313        0.3581434363        0.2800523689



     Writing config-only to output data dir ./pwscf.save/ :
     XML data file
     NEW-OLD atomic charge density approx. for the potential

     total cpu time spent up to now is      225.8 secs

     Self-consistent Calculation

     iteration #  1     ecut=   100.00 Ry     beta= 0.70
     Davidson diagonalization with overlap
     ethr =  1.00E-06,  avg # of iterations =  2.9

     total cpu time spent up to now is      241.2 secs

     total energy              =    -156.47439624 Ry
     estimated scf accuracy    <       0.00006462 Ry

     iteration #  2     ecut=   100.00 Ry     beta= 0.70
     Davidson diagonalization with overlap
     ethr =  1.35E-07,  avg # of iterations =  2.0

     total cpu time spent up to now is      255.7 secs

     total energy              =    -156.47441390 Ry
     estimated scf accuracy    <       0.00000791 Ry

     iteration #  3     ecut=   100.00 Ry     beta= 0.70
     Davidson diagonalization with overlap
     ethr =  1.65E-08,  avg # of iterations =  2.0

     total cpu time spent up to now is      270.3 secs

     total energy              =    -156.47441495 Ry
     estimated scf accuracy    <       0.00000014 Ry

     iteration #  4     ecut=   100.00 Ry     beta= 0.70
     Davidson diagonalization with overlap
     ethr =  2.87E-10,  avg # of iterations =  3.1

     total cpu time spent up to now is      287.5 secs

     total energy              =    -156.47441500 Ry
     estimated scf accuracy    <       0.00000010 Ry

     iteration #  5     ecut=   100.00 Ry     beta= 0.70
     Davidson diagonalization with overlap
     ethr =  2.14E-10,  avg # of iterations =  2.0

     total cpu time spent up to now is      302.0 secs

     total energy              =    -156.47441503 Ry
     estimated scf accuracy    <          3.1E-09 Ry

     iteration #  6     ecut=   100.00 Ry     beta= 0.70
     Davidson diagonalization with overlap
     ethr =  6.41E-12,  avg # of iterations =  5.0

     total cpu time spent up to now is      321.0 secs

     total energy              =    -156.47441503 Ry
     estimated scf accuracy    <          1.8E-10 Ry

     iteration #  7     ecut=   100.00 Ry     beta= 0.70
     Davidson diagonalization with overlap
     ethr =  3.77E-13,  avg # of iterations =  4.5

     total cpu time spent up to now is      338.7 secs

     End of self-consistent calculation

          k = 0.0000 0.0000 0.0000 ( 23753 PWs)   bands (ev):

   -23.6204 -23.6099  -9.2272  -9.1272  -8.9049  -8.8604  -8.8328  -8.7603
    -5.9322  -4.9442  -4.1871  -4.0461  -1.6299  -0.6962  -0.5949  -0.2610
     0.1331   0.1575   0.2175   0.3267   0.5001   0.9308   0.9424   0.9863

          k = 0.0000 0.0000 0.3610 ( 23738 PWs)   bands (ev):

   -23.6114 -23.6039  -9.1202  -9.1197  -9.0944  -9.0515  -8.8841  -8.8596
    -5.3854  -4.6525  -4.3843  -4.2982  -1.2229  -0.9587  -0.5034  -0.4494
    -0.2910  -0.1629   0.2194   0.5205   0.7110   0.7621   0.8439   0.9946

          k = 0.0000 0.0000-0.7220 ( 23760 PWs)   bands (ev):

   -23.6002 -23.6002  -9.3649  -9.3647  -8.9560  -8.9559  -8.8935  -8.8935
    -4.6298  -4.6293  -4.5697  -4.5691  -0.9859  -0.9854  -0.9750  -0.9734
     0.1161   0.1169   0.2232   0.2250   0.8110   0.8112   0.8254   0.8256

          k = 0.0000 0.2438 0.0000 ( 23709 PWs)   bands (ev):

   -23.6188 -23.6114  -9.1948  -9.0921  -8.9686  -8.9016  -8.8219  -8.7707
    -5.7151  -4.8440  -4.4995  -4.1890  -1.2428  -0.7906  -0.7712   0.0328
     0.0553   0.0732   0.3766   0.5084   0.5870   0.5973   0.8381   0.9129

          k = 0.0000 0.2438 0.3610 ( 23733 PWs)   bands (ev):

   -23.6103 -23.6050  -9.1727  -9.1296  -9.0351  -9.0189  -8.8955  -8.8853
    -5.2756  -4.7341  -4.4259  -4.3383  -1.0266  -0.9841  -0.7951  -0.1943
    -0.1491   0.0485   0.0637   0.5759   0.6453   0.7032   0.8070   0.8657

          k = 0.0000 0.2438-0.7220 ( 23716 PWs)   bands (ev):

   -23.6001 -23.6001  -9.3801  -9.3800  -8.9342  -8.9342  -8.8925  -8.8925
    -4.9558  -4.9557  -4.2298  -4.2298  -1.1199  -1.1192  -0.7813  -0.7805
     0.2005   0.2007   0.2591   0.2606   0.6260   0.6261   0.8191   0.8194

          k = 0.0000-0.4876 0.0000 ( 23724 PWs)   bands (ev):

   -23.6151 -23.6151  -9.1012  -9.1012  -8.9953  -8.9953  -8.7961  -8.7961
    -5.1778  -5.1778  -4.5029  -4.5029  -0.9194  -0.9194  -0.2822  -0.2822
    -0.0330  -0.0330   0.4991   0.4991   0.6380   0.6380   0.7609   0.7609

          k = 0.0000-0.4876 0.3610 ( 23726 PWs)   bands (ev):

   -23.6076 -23.6076  -9.1728  -9.1728  -8.9682  -8.9682  -8.9314  -8.9314
    -5.0033  -5.0033  -4.4091  -4.4091  -0.9698  -0.9698  -0.5493  -0.5493
     0.1088   0.1088   0.4006   0.4006   0.5572   0.5572   0.7800   0.7800

          k = 0.0000-0.4876-0.7220 ( 23740 PWs)   bands (ev):

   -23.6001 -23.6001  -9.3941  -9.3941  -8.9156  -8.9156  -8.8894  -8.8894
    -5.1001  -5.1001  -4.0717  -4.0717  -1.2163  -1.2163  -0.5144  -0.5144
     0.1160   0.1160   0.3327   0.3327   0.4227   0.4227   0.8573   0.8573

          k = 0.2500 0.0000 0.0000 ( 23732 PWs)   bands (ev):

   -23.6188 -23.6114  -9.1831  -9.1068  -8.9554  -8.9226  -8.8220  -8.7707
    -5.7241  -4.9664  -4.2358  -4.2168  -1.4292  -0.5381  -0.5099  -0.3918
     0.1804   0.2234   0.2850   0.3530   0.4552   0.4837   0.8914   0.9277

          k = 0.2500 0.0000 0.3610 ( 23742 PWs)   bands (ev):

   -23.6103 -23.6050  -9.1629  -9.1431  -9.0677  -8.9916  -8.9139  -8.8716
    -5.2260  -4.6287  -4.4385  -4.4225  -1.1946  -0.9427  -0.7987  -0.2426
    -0.2359   0.0603   0.2912   0.4308   0.5809   0.7104   0.9124   0.9435

          k = 0.2500 0.0000-0.7220 ( 23774 PWs)   bands (ev):

   -23.6001 -23.6001  -9.3858  -9.3856  -8.9397  -8.9396  -8.8898  -8.8898
    -4.7423  -4.7419  -4.4224  -4.4221  -1.4796  -1.4791  -0.5011  -0.5007
     0.1151   0.1156   0.4739   0.4753   0.6019   0.6019   0.8553   0.8557

          k = 0.2500 0.2438 0.0000 ( 23729 PWs)   bands (ev):

   -23.6177 -23.6124  -9.2157  -9.0793  -9.0170  -8.8681  -8.8141  -8.7779
    -5.5744  -4.9210  -4.5044  -4.2444  -1.1233  -0.7686  -0.5551  -0.0767
    -0.0065   0.0469   0.3653   0.5180   0.5315   0.6187   0.6859   0.8413

          k = 0.2500 0.2438 0.3610 ( 23728 PWs)   bands (ev):

   -23.6095 -23.6057  -9.1662  -9.1203  -9.1114  -8.9678  -8.9278  -8.8633
    -5.1342  -4.6769  -4.5186  -4.4187  -1.1579  -0.9130  -0.8059  -0.2288
    -0.0700   0.1173   0.2218   0.4533   0.5555   0.6723   0.8310   0.9204

          k = 0.2500 0.2438-0.7220 ( 23764 PWs)   bands (ev):

   -23.6001 -23.6001  -9.3934  -9.3665  -8.9654  -8.9178  -8.8987  -8.8902
    -4.9708  -4.7650  -4.3902  -4.1779  -1.4554  -1.3659  -0.5787  -0.4537
     0.0611   0.0663   0.4411   0.5160   0.6080   0.6619   0.8018   0.8306

          k = 0.2500-0.4876 0.0000 ( 23696 PWs)   bands (ev):

   -23.6151 -23.6151  -9.1876  -9.1876  -8.9085  -8.9085  -8.7956  -8.7956
    -5.1911  -5.1911  -4.4762  -4.4762  -0.8245  -0.8245  -0.2918  -0.2918
    -0.0754  -0.0754   0.4242   0.4242   0.6805   0.6805   0.6956   0.6956

          k = 0.2500-0.4876 0.3610 ( 23708 PWs)   bands (ev):

   -23.6076 -23.6076  -9.1595  -9.1595  -9.0421  -9.0421  -8.8797  -8.8797
    -4.9069  -4.9069  -4.4829  -4.4829  -1.0659  -1.0659  -0.4614  -0.4614
     0.0763   0.0763   0.4168   0.4168   0.5702   0.5702   0.8017   0.8017

          k = 0.2500-0.4876-0.7220 ( 23732 PWs)   bands (ev):

   -23.6001 -23.6001  -9.3755  -9.3755  -8.9444  -8.9444  -8.8971  -8.8971
    -4.9782  -4.9782  -4.1610  -4.1610  -1.3355  -1.3355  -0.5786  -0.5786
     0.1846   0.1846   0.3164   0.3164   0.6602   0.6602   0.8176   0.8176

          k =-0.5001 0.0000 0.0000 ( 23768 PWs)   bands (ev):

   -23.6151 -23.6151  -9.0737  -9.0737  -9.0334  -9.0334  -8.7961  -8.7961
    -5.2637  -5.2637  -4.3203  -4.3203  -0.9865  -0.9865  -0.1575  -0.1575
     0.2243   0.2243   0.2392   0.2392   0.3311   0.3311   0.7714   0.7714

          k =-0.5001 0.0000 0.3610 ( 23714 PWs)   bands (ev):

   -23.6076 -23.6076  -9.1778  -9.1778  -8.9940  -8.9940  -8.9141  -8.9141
    -4.8534  -4.8534  -4.5025  -4.5025  -1.1205  -1.1205  -0.5277  -0.5277
     0.0809   0.0809   0.2807   0.2807   0.6732   0.6732   0.8996   0.8996

          k =-0.5001 0.0000-0.7220 ( 23772 PWs)   bands (ev):

   -23.6001 -23.6001  -9.4050  -9.4050  -8.9262  -8.9262  -8.8847  -8.8847
    -4.7956  -4.7956  -4.3310  -4.3310  -1.7019  -1.7019  -0.1796  -0.1796
     0.1142   0.1142   0.2841   0.2841   0.8006   0.8006   0.8067   0.8067

          k =-0.5001 0.2438 0.0000 ( 23752 PWs)   bands (ev):

   -23.6150 -23.6150  -9.1858  -9.1858  -8.9156  -8.9156  -8.7956  -8.7956
    -5.2365  -5.2365  -4.3825  -4.3825  -0.8732  -0.8732  -0.1641  -0.1641
    -0.0055  -0.0055   0.1957   0.1957   0.5856   0.5856   0.7514   0.7514

          k =-0.5001 0.2438 0.3610 ( 23740 PWs)   bands (ev):

   -23.6076 -23.6076  -9.1628  -9.1628  -9.0468  -9.0468  -8.8785  -8.8785
    -4.8102  -4.8102  -4.5511  -4.5511  -1.1265  -1.1265  -0.4950  -0.4950
     0.1152   0.1152   0.3277   0.3277   0.6659   0.6659   0.8274   0.8274

          k =-0.5001 0.2438-0.7220 ( 23760 PWs)   bands (ev):

   -23.6001 -23.6001  -9.3815  -9.3815  -8.9475  -8.9475  -8.8964  -8.8964
    -4.8070  -4.8070  -4.3094  -4.3094  -1.5913  -1.5913  -0.4029  -0.4029
     0.1586   0.1586   0.3642   0.3642   0.7272   0.7272   0.8749   0.8749

          k =-0.5001-0.4876 0.0000 ( 23692 PWs)   bands (ev):

   -23.6150 -23.6150  -9.2380  -9.2380  -8.8577  -8.8577  -8.7952  -8.7952
    -5.2059  -5.2059  -4.4470  -4.4470  -0.7125  -0.7125  -0.3205  -0.3205
    -0.1134  -0.1134   0.3871   0.3871   0.5925   0.5925   0.7186   0.7186

          k =-0.5001-0.4876 0.3610 ( 23752 PWs)   bands (ev):

   -23.6076 -23.6076  -9.1331  -9.1331  -9.0994  -9.0994  -8.8578  -8.8578
    -4.7406  -4.7406  -4.6256  -4.6256  -1.1155  -1.1155  -0.5320  -0.5320
     0.2732   0.2732   0.4157   0.4157   0.5648   0.5648   0.7356   0.7356

          k =-0.5001-0.4876-0.7220 ( 23752 PWs)   bands (ev):

   -23.6001 -23.6001  -9.3545  -9.3545  -8.9757  -8.9757  -8.9044  -8.9044
    -4.8184  -4.8184  -4.2875  -4.2875  -1.4231  -1.4231  -0.7126  -0.7126
     0.3958   0.3958   0.4433   0.4433   0.5893   0.5893   0.8382   0.8382

     highest occupied level (ev):     0.9946

!    total energy              =    -156.47441503 Ry
     estimated scf accuracy    <          1.2E-11 Ry

     The total energy is the sum of the following terms:
     one-electron contribution =     -20.50483752 Ry
     hartree contribution      =      25.01652215 Ry
     xc contribution           =     -49.20658583 Ry
     ewald contribution        =    -111.77951383 Ry

     convergence has been achieved in   7 iterations

     Forces acting on atoms (cartesian axes, Ry/au):

     atom    1 type  2   force =     0.00000000    0.00000000    0.00001174
     atom    2 type  2   force =     0.00000000    0.00000000   -0.00001174
     atom    3 type  1   force =    -0.00013097   -0.00054617   -0.00001160
     atom    4 type  1   force =     0.00013097    0.00054617   -0.00001160
     atom    5 type  1   force =    -0.00013097    0.00054617    0.00001160
     atom    6 type  1   force =     0.00013097   -0.00054617    0.00001160
     atom    7 type  3   force =    -0.00253769    0.00056423   -0.00001729
     atom    8 type  3   force =     0.00253769   -0.00056423   -0.00001729
     atom    9 type  3   force =    -0.00253769   -0.00056423    0.00001729
     atom   10 type  3   force =     0.00253769    0.00056423    0.00001729
     atom   11 type  3   force =     0.00167010    0.00188057    0.00000478
     atom   12 type  3   force =    -0.00167010   -0.00188057    0.00000478
     atom   13 type  3   force =     0.00167010   -0.00188057   -0.00000478
     atom   14 type  3   force =    -0.00167010    0.00188057   -0.00000478
     atom   15 type  3   force =     0.00025024   -0.00147577   -0.00214225
     atom   16 type  3   force =    -0.00025024    0.00147577   -0.00214225
     atom   17 type  3   force =     0.00025024    0.00147577    0.00214225
     atom   18 type  3   force =    -0.00025024   -0.00147577    0.00214225
     atom   19 type  3   force =    -0.00020691    0.00145871    0.00213417
     atom   20 type  3   force =     0.00020691   -0.00145871    0.00213417
     atom   21 type  3   force =    -0.00020691   -0.00145871   -0.00213417
     atom   22 type  3   force =     0.00020691    0.00145871   -0.00213417

     Total force =     0.010384     Total SCF correction =     0.000002


     Computing stress (Cartesian axis) and pressure

          total   stress  (Ry/bohr**3)                   (kbar)     P=        7.34
   0.00004655   0.00000000   0.00000000            6.85        0.00        0.00
   0.00000000   0.00004704   0.00000000            0.00        6.92        0.00
   0.00000000   0.00000000   0.00005607            0.00        0.00        8.25

     Volume is kept fixed: isostatic pressure set to zero
     Energy error            =      2.5E-04 Ry
     Gradient error          =      2.5E-03 Ry/Bohr
     Cell gradient error     =      9.1E-01 kbar

     number of scf cycles    =   2
     number of bfgs steps    =   1

     enthalpy           old  =    -156.4741695895 Ry
     enthalpy           new  =    -156.4744150278 Ry

     CASE: enthalpy          _new < enthalpy          _old

     new trust radius        =       0.0048947824 bohr
ibrav =      8
 celldm(1) =     12.55238614
 celldm(2) =      1.02562627
 celldm(3) =      0.69292009
Input lattice vectors:
     0.99972895     0.00000000     0.00000000
     0.00000000     1.02534827     0.00000000
     0.00000000     0.00000000     0.69273227
New lattice vectors in INITIAL alat:
     0.99972895     0.00000000     0.00000000
     0.00000000     1.02534827     0.00000000
     0.00000000     0.00000000     0.69273227
New lattice vectors in NEW alat (for information only):
     1.00000000     0.00000000     0.00000000
     0.00000000     1.02562627     0.00000000
     0.00000000     0.00000000     0.69292009
Discrepancy in bohr =     0.000000    0.000000    0.000000
     new conv_thr            =            2.5E-11 Ry

     new unit-cell volume =   1405.56573 a.u.^3 (   208.28335 Ang^3 )
     density =      2.66301 g/cm^3

CELL_PARAMETERS (alat= 12.55578938)
   0.999728951   0.000000000   0.000000000
   0.000000000   1.025348274   0.000000000
   0.000000000   0.000000000   0.692732274

ATOMIC_POSITIONS (crystal)
Ba               0.5000000000        0.5000000000        0.5001033033
Ba               0.0000000000        0.0000000000        0.9998966967
B                0.6102293847        0.2390847340        0.0000617852
B                0.3897706153        0.7609152660        0.0000617852
B                0.1102293847        0.2609152660        0.4999382148
B                0.8897706153        0.7390847340        0.4999382148
H                0.4333899446        0.2923184983        0.0002254633
H                0.5666100554        0.7076815017        0.0002254633
H                0.9333899446        0.2076815017        0.4997745367
H                0.0666100554        0.7923184983        0.4997745367
H                0.7225263139        0.3840845115       -0.0000067787
H                0.2774736861        0.6159154885       -0.0000067787
H                0.2225263139        0.1159154885        0.5000067787
H                0.7774736861        0.8840845115        0.5000067787
H                0.6393296231        0.1416908236        0.7796128137
H                0.3606703769        0.8583091764        0.7796128137
H                0.1393296231        0.3583091764        0.7203871863
H                0.8606703769        0.6416908236        0.7203871863
H                0.3604630283        0.8583555047        0.2204074569
H                0.6395369717        0.1416444953        0.2204074569
H                0.8604630283        0.6416444953        0.2795925431
H                0.1395369717        0.3583555047        0.2795925431



     Writing config-only to output data dir ./pwscf.save/ :
     XML data file
     NEW-OLD atomic charge density approx. for the potential

     total cpu time spent up to now is      368.8 secs

     Self-consistent Calculation

     iteration #  1     ecut=   100.00 Ry     beta= 0.70
     Davidson diagonalization with overlap
     ethr =  1.00E-06,  avg # of iterations =  3.0

     total cpu time spent up to now is      384.6 secs

     total energy              =    -156.47451926 Ry
     estimated scf accuracy    <       0.00008400 Ry

     iteration #  2     ecut=   100.00 Ry     beta= 0.70
     Davidson diagonalization with overlap
     ethr =  1.75E-07,  avg # of iterations =  2.0

     total cpu time spent up to now is      399.1 secs

     total energy              =    -156.47454307 Ry
     estimated scf accuracy    <       0.00001250 Ry

     iteration #  3     ecut=   100.00 Ry     beta= 0.70
     Davidson diagonalization with overlap
     ethr =  2.61E-08,  avg # of iterations =  2.0

     total cpu time spent up to now is      413.6 secs

     total energy              =    -156.47454474 Ry
     estimated scf accuracy    <       0.00000020 Ry

     iteration #  4     ecut=   100.00 Ry     beta= 0.70
     Davidson diagonalization with overlap
     ethr =  4.27E-10,  avg # of iterations =  3.1

     total cpu time spent up to now is      431.2 secs

     total energy              =    -156.47454483 Ry
     estimated scf accuracy    <       0.00000015 Ry

     iteration #  5     ecut=   100.00 Ry     beta= 0.70
     Davidson diagonalization with overlap
     ethr =  3.11E-10,  avg # of iterations =  2.0

     total cpu time spent up to now is      445.7 secs

     total energy              =    -156.47454486 Ry
     estimated scf accuracy    <          8.3E-10 Ry

     iteration #  6     ecut=   100.00 Ry     beta= 0.70
     Davidson diagonalization with overlap
     ethr =  1.73E-12,  avg # of iterations =  6.9

     total cpu time spent up to now is      471.5 secs

     total energy              =    -156.47454486 Ry
     estimated scf accuracy    <          8.0E-10 Ry

     iteration #  7     ecut=   100.00 Ry     beta= 0.70
     Davidson diagonalization with overlap
     ethr =  1.67E-12,  avg # of iterations =  2.0

     total cpu time spent up to now is      486.0 secs

     End of self-consistent calculation

          k = 0.0000 0.0000 0.0000 ( 23753 PWs)   bands (ev):

   -23.6160 -23.6055  -9.2225  -9.1229  -8.9006  -8.8564  -8.8289  -8.7563
    -5.9233  -4.9295  -4.1733  -4.0312  -1.6298  -0.6899  -0.5918  -0.2516
     0.1396   0.1618   0.2214   0.3330   0.5051   0.9414   0.9536   0.9985

          k = 0.0000 0.0000 0.3609 ( 23738 PWs)   bands (ev):

   -23.6070 -23.5996  -9.1154  -9.1152  -9.0895  -9.0474  -8.8799  -8.8556
    -5.3764  -4.6388  -4.3697  -4.2828  -1.2237  -0.9575  -0.5020  -0.4429
    -0.2862  -0.1579   0.2268   0.5295   0.7213   0.7726   0.8527   1.0055

          k = 0.0000 0.0000-0.7218 ( 23760 PWs)   bands (ev):

   -23.5958 -23.5958  -9.3595  -9.3593  -8.9520  -8.9520  -8.8894  -8.8894
    -4.6185  -4.6181  -4.5540  -4.5535  -0.9864  -0.9858  -0.9748  -0.9732
     0.1246   0.1254   0.2307   0.2325   0.8218   0.8219   0.8350   0.8352

          k = 0.0000 0.2438 0.0000 ( 23709 PWs)   bands (ev):

   -23.6145 -23.6070  -9.1900  -9.0877  -8.9643  -8.8975  -8.8180  -8.7667
    -5.7058  -4.8292  -4.4875  -4.1743  -1.2407  -0.7875  -0.7663   0.0384
     0.0599   0.0830   0.3836   0.5143   0.5970   0.6032   0.8487   0.9240

          k = 0.0000 0.2438 0.3609 ( 23733 PWs)   bands (ev):

   -23.6059 -23.6006  -9.1681  -9.1248  -9.0305  -9.0147  -8.8913  -8.8813
    -5.2659  -4.7208  -4.4120  -4.3233  -1.0264  -0.9830  -0.7927  -0.1904
    -0.1433   0.0569   0.0697   0.5849   0.6550   0.7134   0.8164   0.8759

          k = 0.0000 0.2438-0.7218 ( 23716 PWs)   bands (ev):

   -23.5958 -23.5958  -9.3748  -9.3746  -8.9303  -8.9303  -8.8884  -8.8884
    -4.9424  -4.9423  -4.2164  -4.2164  -1.1197  -1.1190  -0.7813  -0.7805
     0.2090   0.2092   0.2670   0.2686   0.6351   0.6352   0.8297   0.8299

          k = 0.0000-0.4876 0.0000 ( 23724 PWs)   bands (ev):

   -23.6107 -23.6107  -9.0965  -9.0965  -8.9913  -8.9913  -8.7921  -8.7921
    -5.1672  -5.1672  -4.4886  -4.4886  -0.9167  -0.9167  -0.2755  -0.2755
    -0.0281  -0.0281   0.5098   0.5098   0.6441   0.6441   0.7706   0.7706

          k = 0.0000-0.4876 0.3609 ( 23726 PWs)   bands (ev):

   -23.6033 -23.6033  -9.1681  -9.1681  -8.9636  -8.9636  -8.9275  -8.9275
    -4.9918  -4.9918  -4.3950  -4.3950  -0.9688  -0.9688  -0.5459  -0.5459
     0.1159   0.1159   0.4076   0.4076   0.5678   0.5678   0.7897   0.7897

          k = 0.0000-0.4876-0.7218 ( 23740 PWs)   bands (ev):

   -23.5958 -23.5958  -9.3888  -9.3888  -8.9118  -8.9118  -8.8853  -8.8853
    -5.0867  -5.0867  -4.0585  -4.0585  -1.2162  -1.2162  -0.5145  -0.5145
     0.1249   0.1249   0.3403   0.3403   0.4319   0.4319   0.8680   0.8680

          k = 0.2501 0.0000 0.0000 ( 23732 PWs)   bands (ev):

   -23.6144 -23.6070  -9.1784  -9.1025  -8.9511  -8.9185  -8.8180  -8.7667
    -5.7147  -4.9527  -4.2218  -4.2026  -1.4285  -0.5331  -0.5060  -0.3845
     0.1857   0.2287   0.2903   0.3614   0.4611   0.4927   0.9026   0.9399

          k = 0.2501 0.0000 0.3609 ( 23742 PWs)   bands (ev):

   -23.6059 -23.6006  -9.1583  -9.1383  -9.0632  -8.9873  -8.9098  -8.8675
    -5.2164  -4.6153  -4.4239  -4.4079  -1.1957  -0.9403  -0.7983  -0.2373
    -0.2288   0.0664   0.2996   0.4396   0.5895   0.7196   0.9234   0.9534

          k = 0.2501 0.0000-0.7218 ( 23774 PWs)   bands (ev):

   -23.5958 -23.5958  -9.3804  -9.3803  -8.9358  -8.9357  -8.8857  -8.8856
    -4.7279  -4.7275  -4.4098  -4.4094  -1.4810  -1.4805  -0.4996  -0.4993
     0.1236   0.1241   0.4821   0.4835   0.6109   0.6109   0.8657   0.8661

          k = 0.2501 0.2438 0.0000 ( 23729 PWs)   bands (ev):

   -23.6133 -23.6080  -9.2111  -9.0747  -9.0129  -8.8639  -8.8102  -8.7738
    -5.5645  -4.9073  -4.4916  -4.2307  -1.1206  -0.7649  -0.5495  -0.0702
    -0.0018   0.0516   0.3746   0.5241   0.5412   0.6251   0.6966   0.8517

          k = 0.2501 0.2438 0.3609 ( 23728 PWs)   bands (ev):

   -23.6051 -23.6014  -9.1615  -9.1156  -9.1071  -8.9632  -8.9238  -8.8592
    -5.1240  -4.6633  -4.5053  -4.4041  -1.1583  -0.9125  -0.8030  -0.2230
    -0.0636   0.1238   0.2298   0.4615   0.5649   0.6819   0.8409   0.9303

          k = 0.2501 0.2438-0.7218 ( 23764 PWs)   bands (ev):

   -23.5958 -23.5958  -9.3881  -9.3612  -8.9615  -8.9139  -8.8947  -8.8860
    -4.9568  -4.7511  -4.3769  -4.1649  -1.4567  -1.3672  -0.5767  -0.4524
     0.0693   0.0745   0.4485   0.5242   0.6183   0.6714   0.8110   0.8420

          k = 0.2501-0.4876 0.0000 ( 23696 PWs)   bands (ev):

   -23.6107 -23.6107  -9.1831  -9.1831  -8.9043  -8.9043  -8.7916  -8.7916
    -5.1796  -5.1796  -4.4631  -4.4631  -0.8207  -0.8207  -0.2851  -0.2851
    -0.0708  -0.0708   0.4330   0.4330   0.6870   0.6870   0.7059   0.7059

          k = 0.2501-0.4876 0.3609 ( 23708 PWs)   bands (ev):

   -23.6032 -23.6032  -9.1550  -9.1550  -9.0376  -9.0376  -8.8756  -8.8756
    -4.8951  -4.8951  -4.4692  -4.4692  -1.0656  -1.0656  -0.4568  -0.4568
     0.0828   0.0828   0.4250   0.4250   0.5798   0.5798   0.8113   0.8113

          k = 0.2501-0.4876-0.7218 ( 23732 PWs)   bands (ev):

   -23.5958 -23.5958  -9.3701  -9.3701  -8.9406  -8.9406  -8.8930  -8.8930
    -4.9645  -4.9645  -4.1477  -4.1477  -1.3366  -1.3366  -0.5769  -0.5769
     0.1930   0.1930   0.3241   0.3241   0.6698   0.6698   0.8281   0.8281

          k =-0.5001 0.0000 0.0000 ( 23768 PWs)   bands (ev):

   -23.6107 -23.6107  -9.0689  -9.0689  -9.0294  -9.0294  -8.7921  -8.7921
    -5.2526  -5.2526  -4.3060  -4.3060  -0.9845  -0.9845  -0.1517  -0.1517
     0.2282   0.2282   0.2488   0.2488   0.3380   0.3380   0.7829   0.7829

          k =-0.5001 0.0000 0.3609 ( 23714 PWs)   bands (ev):

   -23.6032 -23.6032  -9.1731  -9.1731  -8.9895  -8.9895  -8.9100  -8.9100
    -4.8421  -4.8421  -4.4878  -4.4878  -1.1211  -1.1211  -0.5236  -0.5236
     0.0886   0.0886   0.2887   0.2887   0.6817   0.6817   0.9104   0.9104

          k =-0.5001 0.0000-0.7218 ( 23772 PWs)   bands (ev):

   -23.5958 -23.5958  -9.3997  -9.3997  -8.9223  -8.9223  -8.8806  -8.8806
    -4.7805  -4.7805  -4.3188  -4.3188  -1.7040  -1.7040  -0.1775  -0.1775
     0.1227   0.1227   0.2924   0.2924   0.8092   0.8092   0.8179   0.8179

          k =-0.5001 0.2438 0.0000 ( 23752 PWs)   bands (ev):

   -23.6106 -23.6106  -9.1814  -9.1814  -8.9114  -8.9114  -8.7917  -8.7917
    -5.2248  -5.2248  -4.3693  -4.3693  -0.8696  -0.8696  -0.1580  -0.1580
    -0.0010  -0.0010   0.2042   0.2042   0.5921   0.5921   0.7624   0.7624

          k =-0.5001 0.2438 0.3609 ( 23740 PWs)   bands (ev):

   -23.6032 -23.6032  -9.1583  -9.1583  -9.0423  -9.0423  -8.8744  -8.8744
    -4.7985  -4.7985  -4.5370  -4.5370  -1.1268  -1.1268  -0.4905  -0.4905
     0.1230   0.1230   0.3355   0.3355   0.6749   0.6749   0.8373   0.8373

          k =-0.5001 0.2438-0.7218 ( 23760 PWs)   bands (ev):

   -23.5957 -23.5957  -9.3761  -9.3761  -8.9436  -8.9436  -8.8923  -8.8923
    -4.7924  -4.7924  -4.2967  -4.2967  -1.5932  -1.5932  -0.4004  -0.4004
     0.1665   0.1665   0.3726   0.3726   0.7371   0.7371   0.8850   0.8850

          k =-0.5001-0.4876 0.0000 ( 23692 PWs)   bands (ev):

   -23.6106 -23.6106  -9.2336  -9.2336  -8.8535  -8.8535  -8.7912  -8.7912
    -5.1934  -5.1934  -4.4349  -4.4349  -0.7063  -0.7063  -0.3158  -0.3158
    -0.1092  -0.1092   0.3964   0.3964   0.6016   0.6016   0.7254   0.7254

          k =-0.5001-0.4876 0.3609 ( 23752 PWs)   bands (ev):

   -23.6032 -23.6032  -9.1289  -9.1289  -9.0946  -9.0946  -8.8537  -8.8537
    -4.7282  -4.7282  -4.6124  -4.6124  -1.1154  -1.1154  -0.5273  -0.5273
     0.2802   0.2802   0.4254   0.4254   0.5741   0.5741   0.7437   0.7437

          k =-0.5001-0.4876-0.7218 ( 23752 PWs)   bands (ev):

   -23.5957 -23.5957  -9.3491  -9.3491  -8.9718  -8.9718  -8.9003  -8.9003
    -4.8043  -4.8043  -4.2744  -4.2744  -1.4250  -1.4250  -0.7105  -0.7105
     0.4040   0.4040   0.4530   0.4530   0.5989   0.5989   0.8475   0.8475

     highest occupied level (ev):     1.0055

!    total energy              =    -156.47454486 Ry
     estimated scf accuracy    <          2.7E-12 Ry

     The total energy is the sum of the following terms:
     one-electron contribution =     -20.35493538 Ry
     hartree contribution      =      24.94207222 Ry
     xc contribution           =     -49.18843148 Ry
     ewald contribution        =    -111.87325022 Ry

     convergence has been achieved in   7 iterations

     Forces acting on atoms (cartesian axes, Ry/au):

     atom    1 type  2   force =     0.00000000    0.00000000    0.00000770
     atom    2 type  2   force =     0.00000000    0.00000000   -0.00000770
     atom    3 type  1   force =    -0.00015638   -0.00035724   -0.00000941
     atom    4 type  1   force =     0.00015638    0.00035724   -0.00000941
     atom    5 type  1   force =    -0.00015638    0.00035724    0.00000941
     atom    6 type  1   force =     0.00015638   -0.00035724    0.00000941
     atom    7 type  3   force =    -0.00076656    0.00003253   -0.00001985
     atom    8 type  3   force =     0.00076656   -0.00003253   -0.00001985
     atom    9 type  3   force =    -0.00076656   -0.00003253    0.00001985
     atom   10 type  3   force =     0.00076656    0.00003253    0.00001985
     atom   11 type  3   force =     0.00044750    0.00024594    0.00000423
     atom   12 type  3   force =    -0.00044750   -0.00024594    0.00000423
     atom   13 type  3   force =     0.00044750   -0.00024594   -0.00000423
     atom   14 type  3   force =    -0.00044750    0.00024594   -0.00000423
     atom   15 type  3   force =    -0.00004507   -0.00049113   -0.00049563
     atom   16 type  3   force =     0.00004507    0.00049113   -0.00049563
     atom   17 type  3   force =    -0.00004507    0.00049113    0.00049563
     atom   18 type  3   force =     0.00004507   -0.00049113    0.00049563
     atom   19 type  3   force =     0.00008706    0.00047732    0.00049030
     atom   20 type  3   force =    -0.00008706   -0.00047732    0.00049030
     atom   21 type  3   force =     0.00008706   -0.00047732   -0.00049030
     atom   22 type  3   force =    -0.00008706    0.00047732   -0.00049030

     Total force =     0.002805     Total SCF correction =     0.000000


     Computing stress (Cartesian axis) and pressure

          total   stress  (Ry/bohr**3)                   (kbar)     P=        4.97
   0.00003159   0.00000000   0.00000000            4.65        0.00        0.00
   0.00000000   0.00003163   0.00000000            0.00        4.65        0.00
   0.00000000   0.00000000   0.00003822            0.00        0.00        5.62

     Volume is kept fixed: isostatic pressure set to zero
     Energy error            =      1.3E-04 Ry
     Gradient error          =      7.7E-04 Ry/Bohr
     Cell gradient error     =      6.5E-01 kbar

     number of scf cycles    =   3
     number of bfgs steps    =   2

     enthalpy           old  =    -156.4744150278 Ry
     enthalpy           new  =    -156.4745448637 Ry

     CASE: enthalpy          _new < enthalpy          _old

     new trust radius        =       0.0018999691 bohr
ibrav =      8
 celldm(1) =     12.55109384
 celldm(2) =      1.02563182
 celldm(3) =      0.69313040
Input lattice vectors:
     0.99962603     0.00000000     0.00000000
     0.00000000     1.02524826     0.00000000
     0.00000000     0.00000000     0.69287118
New lattice vectors in INITIAL alat:
     0.99962603     0.00000000     0.00000000
     0.00000000     1.02524826     0.00000000
     0.00000000     0.00000000     0.69287118
New lattice vectors in NEW alat (for information only):
     1.00000000     0.00000000     0.00000000
     0.00000000     1.02563182     0.00000000
     0.00000000     0.00000000     0.69313040
Discrepancy in bohr =     0.000000    0.000000    0.000000
     new conv_thr            =            1.3E-11 Ry

     new unit-cell volume =   1405.56573 a.u.^3 (   208.28335 Ang^3 )
     density =      2.66301 g/cm^3

CELL_PARAMETERS (alat= 12.55578938)
   0.999626026   0.000000000   0.000000000
   0.000000000   1.025248261   0.000000000
   0.000000000   0.000000000   0.692871183

ATOMIC_POSITIONS (crystal)
Ba               0.5000000000        0.5000000000        0.5001049503
Ba               0.0000000000        0.0000000000        0.9998950497
B                0.6102090919        0.2390332630        0.0000598776
B                0.3897909081        0.7609667370        0.0000598776
B                0.1102090919        0.2609667370        0.4999401224
B                0.8897909081        0.7390332630        0.4999401224
H                0.4332397489        0.2923366162        0.0002217139
H                0.5667602511        0.7076633838        0.0002217139
H                0.9332397489        0.2076633838        0.4997782861
H                0.0667602511        0.7923366162        0.4997782861
H                0.7226190022        0.3841592632       -0.0000059375
H                0.2773809978        0.6158407368       -0.0000059375
H                0.2226190022        0.1158407368        0.5000059375
H                0.7773809978        0.8841592632        0.5000059375
H                0.6393314881        0.1416008436        0.7794530293
H                0.3606685119        0.8583991564        0.7794530293
H                0.1393314881        0.3583991564        0.7205469707
H                0.8606685119        0.6416008436        0.7205469707
H                0.3604668310        0.8584435944        0.2205661018
H                0.6395331690        0.1415564056        0.2205661018
H                0.8604668310        0.6415564056        0.2794338982
H                0.1395331690        0.3584435944        0.2794338982



     Writing config-only to output data dir ./pwscf.save/ :
     XML data file
     NEW-OLD atomic charge density approx. for the potential

     total cpu time spent up to now is      516.1 secs

     Self-consistent Calculation

     iteration #  1     ecut=   100.00 Ry     beta= 0.70
     Davidson diagonalization with overlap
     ethr =  1.00E-06,  avg # of iterations =  2.0

     Threshold (ethr) on eigenvalues was too large:
     Diagonalizing with lowered threshold

     Davidson diagonalization with overlap
     ethr =  1.87E-08,  avg # of iterations =  2.0

     total cpu time spent up to now is      543.7 secs

     total energy              =    -156.47455312 Ry
     estimated scf accuracy    <       0.00001203 Ry

     iteration #  2     ecut=   100.00 Ry     beta= 0.70
     Davidson diagonalization with overlap
     ethr =  2.51E-08,  avg # of iterations =  2.0

     total cpu time spent up to now is      558.2 secs

     total energy              =    -156.47455654 Ry
     estimated scf accuracy    <       0.00000237 Ry

     iteration #  3     ecut=   100.00 Ry     beta= 0.70
     Davidson diagonalization with overlap
     ethr =  4.93E-09,  avg # of iterations =  2.0

     total cpu time spent up to now is      572.8 secs

     total energy              =    -156.47455685 Ry
     estimated scf accuracy    <       0.00000004 Ry

     iteration #  4     ecut=   100.00 Ry     beta= 0.70
     Davidson diagonalization with overlap
     ethr =  7.50E-11,  avg # of iterations =  3.0

     total cpu time spent up to now is      590.4 secs

     total energy              =    -156.47455687 Ry
     estimated scf accuracy    <       0.00000002 Ry

     iteration #  5     ecut=   100.00 Ry     beta= 0.70
     Davidson diagonalization with overlap
     ethr =  4.24E-11,  avg # of iterations =  2.0

     total cpu time spent up to now is      605.0 secs

     total energy              =    -156.47455687 Ry
     estimated scf accuracy    <          2.8E-10 Ry

     iteration #  6     ecut=   100.00 Ry     beta= 0.70
     Davidson diagonalization with overlap
     ethr =  5.78E-13,  avg # of iterations =  6.0

     total cpu time spent up to now is      628.0 secs

     total energy              =    -156.47455687 Ry
     estimated scf accuracy    <          2.1E-10 Ry

     iteration #  7     ecut=   100.00 Ry     beta= 0.70
     Davidson diagonalization with overlap
     ethr =  4.29E-13,  avg # of iterations =  2.0

     total cpu time spent up to now is      642.6 secs

     End of self-consistent calculation

          k = 0.0000 0.0000 0.0000 ( 23753 PWs)   bands (ev):

   -23.6146 -23.6041  -9.2208  -9.1214  -8.8991  -8.8550  -8.8277  -8.7550
    -5.9201  -4.9243  -4.1683  -4.0258  -1.6292  -0.6875  -0.5906  -0.2477
     0.1416   0.1640   0.2221   0.3350   0.5062   0.9455   0.9578   1.0037

          k = 0.0000 0.0000 0.3608 ( 23738 PWs)   bands (ev):

   -23.6057 -23.5982  -9.1137  -9.1137  -9.0877  -9.0460  -8.8785  -8.8543
    -5.3734  -4.6341  -4.3643  -4.2771  -1.2238  -0.9568  -0.5012  -0.4404
    -0.2847  -0.1565   0.2295   0.5327   0.7250   0.7769   0.8559   1.0100

          k = 0.0000 0.0000-0.7216 ( 23760 PWs)   bands (ev):

   -23.5945 -23.5945  -9.3573  -9.3571  -8.9509  -8.9508  -8.8881  -8.8881
    -4.6149  -4.6144  -4.5481  -4.5475  -0.9867  -0.9861  -0.9745  -0.9729
     0.1277   0.1285   0.2334   0.2352   0.8263   0.8263   0.8386   0.8389

          k = 0.0000 0.2438 0.0000 ( 23709 PWs)   bands (ev):

   -23.6131 -23.6056  -9.1884  -9.0862  -8.9628  -8.8962  -8.8168  -8.7654
    -5.7024  -4.8237  -4.4833  -4.1690  -1.2394  -0.7862  -0.7643   0.0398
     0.0609   0.0869   0.3867   0.5160   0.6014   0.6048   0.8527   0.9282

          k = 0.0000 0.2438 0.3608 ( 23733 PWs)   bands (ev):

   -23.6046 -23.5993  -9.1665  -9.1231  -9.0288  -9.0133  -8.8898  -8.8800
    -5.2626  -4.7161  -4.4070  -4.3178  -1.0261  -0.9825  -0.7916  -0.1892
    -0.1412   0.0601   0.0718   0.5883   0.6586   0.7177   0.8197   0.8799

          k = 0.0000 0.2438-0.7216 ( 23716 PWs)   bands (ev):

   -23.5945 -23.5945  -9.3726  -9.3725  -8.9291  -8.9291  -8.8870  -8.8870
    -4.9376  -4.9376  -4.2116  -4.2116  -1.1193  -1.1187  -0.7814  -0.7806
     0.2122   0.2124   0.2700   0.2716   0.6385   0.6385   0.8341   0.8343

          k = 0.0000-0.4877 0.0000 ( 23724 PWs)   bands (ev):

   -23.6093 -23.6093  -9.0948  -9.0948  -8.9899  -8.9899  -8.7908  -8.7908
    -5.1633  -5.1633  -4.4835  -4.4835  -0.9154  -0.9154  -0.2726  -0.2726
    -0.0270  -0.0270   0.5142   0.5142   0.6459   0.6459   0.7744   0.7744

          k = 0.0000-0.4877 0.3608 ( 23726 PWs)   bands (ev):

   -23.6019 -23.6019  -9.1664  -9.1664  -8.9620  -8.9620  -8.9262  -8.9262
    -4.9879  -4.9879  -4.3898  -4.3898  -0.9683  -0.9683  -0.5445  -0.5445
     0.1184   0.1184   0.4101   0.4101   0.5723   0.5723   0.7932   0.7932

          k = 0.0000-0.4877-0.7216 ( 23740 PWs)   bands (ev):

   -23.5944 -23.5944  -9.3867  -9.3867  -8.9106  -8.9106  -8.8839  -8.8839
    -5.0818  -5.0818  -4.0538  -4.0538  -1.2158  -1.2158  -0.5146  -0.5146
     0.1285   0.1285   0.3431   0.3431   0.4354   0.4354   0.8723   0.8723

          k = 0.2501 0.0000 0.0000 ( 23732 PWs)   bands (ev):

   -23.6131 -23.6056  -9.1767  -9.1011  -8.9495  -8.9172  -8.8168  -8.7654
    -5.7113  -4.9476  -4.2167  -4.1975  -1.4277  -0.5308  -0.5046  -0.3816
     0.1870   0.2301   0.2917   0.3651   0.4627   0.4960   0.9069   0.9451

          k = 0.2501 0.0000 0.3608 ( 23742 PWs)   bands (ev):

   -23.6045 -23.5993  -9.1566  -9.1367  -9.0616  -8.9858  -8.9084  -8.8661
    -5.2131  -4.6106  -4.4184  -4.4025  -1.1961  -0.9393  -0.7981  -0.2354
    -0.2262   0.0684   0.3029   0.4429   0.5925   0.7230   0.9281   0.9572

          k = 0.2501 0.0000-0.7216 ( 23774 PWs)   bands (ev):

   -23.5944 -23.5944  -9.3783  -9.3781  -8.9346  -8.9345  -8.8843  -8.8843
    -4.7226  -4.7222  -4.4054  -4.4051  -1.4815  -1.4810  -0.4990  -0.4987
     0.1268   0.1272   0.4852   0.4866   0.6145   0.6146   0.8698   0.8702

          k = 0.2501 0.2438 0.0000 ( 23729 PWs)   bands (ev):

   -23.6119 -23.6067  -9.2095  -9.0731  -9.0115  -8.8625  -8.8089  -8.7726
    -5.5608  -4.9021  -4.4871  -4.2257  -1.1191  -0.7633  -0.5473  -0.0675
    -0.0007   0.0528   0.3784   0.5258   0.5453   0.6269   0.7007   0.8559

          k = 0.2501 0.2438 0.3608 ( 23728 PWs)   bands (ev):

   -23.6038 -23.6000  -9.1598  -9.1138  -9.1057  -8.9616  -8.9225  -8.8579
    -5.1205  -4.6585  -4.5005  -4.3987  -1.1584  -0.9122  -0.8016  -0.2210
    -0.0612   0.1262   0.2328   0.4645   0.5687   0.6856   0.8447   0.9342

          k = 0.2501 0.2438-0.7216 ( 23764 PWs)   bands (ev):

   -23.5944 -23.5944  -9.3859  -9.3590  -8.9604  -8.9127  -8.8934  -8.8847
    -4.9518  -4.7461  -4.3723  -4.1604  -1.4571  -1.3677  -0.5759  -0.4520
     0.0724   0.0778   0.4512   0.5271   0.6226   0.6751   0.8144   0.8468

          k = 0.2501-0.4877 0.0000 ( 23696 PWs)   bands (ev):

   -23.6093 -23.6093  -9.1816  -9.1816  -8.9029  -8.9029  -8.7904  -8.7904
    -5.1752  -5.1752  -4.4585  -4.4585  -0.8189  -0.8189  -0.2822  -0.2822
    -0.0698  -0.0698   0.4366   0.4366   0.6889   0.6889   0.7099   0.7099

          k = 0.2501-0.4877 0.3608 ( 23708 PWs)   bands (ev):

   -23.6019 -23.6019  -9.1533  -9.1533  -9.0361  -9.0361  -8.8743  -8.8743
    -4.8909  -4.8909  -4.4642  -4.4642  -1.0654  -1.0654  -0.4548  -0.4548
     0.0851   0.0851   0.4281   0.4281   0.5836   0.5836   0.8148   0.8148

          k = 0.2501-0.4877-0.7216 ( 23732 PWs)   bands (ev):

   -23.5944 -23.5944  -9.3680  -9.3680  -8.9394  -8.9394  -8.8917  -8.8917
    -4.9595  -4.9595  -4.1431  -4.1431  -1.3369  -1.3369  -0.5762  -0.5762
     0.1963   0.1963   0.3269   0.3269   0.6736   0.6736   0.8321   0.8321

          k =-0.5002 0.0000 0.0000 ( 23768 PWs)   bands (ev):

   -23.6093 -23.6093  -9.0673  -9.0673  -9.0281  -9.0281  -8.7909  -8.7909
    -5.2485  -5.2485  -4.3008  -4.3008  -0.9832  -0.9832  -0.1497  -0.1497
     0.2289   0.2289   0.2526   0.2526   0.3401   0.3401   0.7878   0.7878

          k =-0.5002 0.0000 0.3608 ( 23714 PWs)   bands (ev):

   -23.6019 -23.6019  -9.1715  -9.1715  -8.9880  -8.9880  -8.9087  -8.9087
    -4.8382  -4.8382  -4.4825  -4.4825  -1.1214  -1.1214  -0.5219  -0.5219
     0.0914   0.0914   0.2917   0.2917   0.6846   0.6846   0.9148   0.9148

          k =-0.5002 0.0000-0.7216 ( 23772 PWs)   bands (ev):

   -23.5944 -23.5944  -9.3976  -9.3976  -8.9211  -8.9211  -8.8792  -8.8792
    -4.7748  -4.7748  -4.3147  -4.3147  -1.7047  -1.7047  -0.1767  -0.1767
     0.1258   0.1258   0.2956   0.2956   0.8124   0.8124   0.8225   0.8225

          k =-0.5002 0.2438 0.0000 ( 23752 PWs)   bands (ev):

   -23.6093 -23.6093  -9.1798  -9.1798  -8.9100  -8.9100  -8.7904  -8.7904
    -5.2204  -5.2204  -4.3646  -4.3646  -0.8678  -0.8678  -0.1556  -0.1556
    -0.0001  -0.0001   0.2075   0.2075   0.5940   0.5940   0.7670   0.7670

          k =-0.5002 0.2438 0.3608 ( 23740 PWs)   bands (ev):

   -23.6018 -23.6018  -9.1567  -9.1567  -9.0407  -9.0407  -8.8730  -8.8730
    -4.7943  -4.7943  -4.5319  -4.5319  -1.1269  -1.1269  -0.4887  -0.4887
     0.1258   0.1258   0.3384   0.3384   0.6781   0.6781   0.8413   0.8413

          k =-0.5002 0.2438-0.7216 ( 23760 PWs)   bands (ev):

   -23.5944 -23.5944  -9.3740  -9.3740  -8.9424  -8.9424  -8.8909  -8.8909
    -4.7870  -4.7870  -4.2924  -4.2924  -1.5939  -1.5939  -0.3995  -0.3995
     0.1697   0.1697   0.3757   0.3757   0.7412   0.7412   0.8888   0.8888

          k =-0.5002-0.4877 0.0000 ( 23692 PWs)   bands (ev):

   -23.6092 -23.6092  -9.2321  -9.2321  -8.8521  -8.8521  -8.7899  -8.7899
    -5.1887  -5.1887  -4.4307  -4.4307  -0.7035  -0.7035  -0.3139  -0.3139
    -0.1083  -0.1083   0.4003   0.4003   0.6052   0.6052   0.7275   0.7275

          k =-0.5002-0.4877 0.3608 ( 23752 PWs)   bands (ev):

   -23.6018 -23.6018  -9.1275  -9.1275  -9.0927  -9.0927  -8.8523  -8.8523
    -4.7237  -4.7237  -4.6077  -4.6077  -1.1154  -1.1154  -0.5255  -0.5255
     0.2829   0.2829   0.4291   0.4291   0.5778   0.5778   0.7465   0.7465

          k =-0.5002-0.4877-0.7216 ( 23752 PWs)   bands (ev):

   -23.5944 -23.5944  -9.3469  -9.3469  -8.9707  -8.9707  -8.8990  -8.8990
    -4.7991  -4.7991  -4.2699  -4.2699  -1.4256  -1.4256  -0.7098  -0.7098
     0.4069   0.4069   0.4570   0.4570   0.6029   0.6029   0.8508   0.8508

     highest occupied level (ev):     1.0100

!    total energy              =    -156.47455687 Ry
     estimated scf accuracy    <          4.0E-12 Ry

     The total energy is the sum of the following terms:
     one-electron contribution =     -20.29631079 Ry
     hartree contribution      =      24.91295322 Ry
     xc contribution           =     -49.18183645 Ry
     ewald contribution        =    -111.90936285 Ry

     convergence has been achieved in   7 iterations

     Forces acting on atoms (cartesian axes, Ry/au):

     atom    1 type  2   force =     0.00000000    0.00000000    0.00000442
     atom    2 type  2   force =     0.00000000    0.00000000   -0.00000442
     atom    3 type  1   force =    -0.00015001   -0.00025496   -0.00000794
     atom    4 type  1   force =     0.00015001    0.00025496   -0.00000794
     atom    5 type  1   force =    -0.00015001    0.00025496    0.00000794
     atom    6 type  1   force =     0.00015001   -0.00025496    0.00000794
     atom    7 type  3   force =    -0.00015473   -0.00014473   -0.00002100
     atom    8 type  3   force =     0.00015473    0.00014473   -0.00002100
     atom    9 type  3   force =    -0.00015473    0.00014473    0.00002100
     atom   10 type  3   force =     0.00015473   -0.00014473    0.00002100
     atom   11 type  3   force =     0.00000836   -0.00032602    0.00000369
     atom   12 type  3   force =    -0.00000836    0.00032602    0.00000369
     atom   13 type  3   force =     0.00000836    0.00032602   -0.00000369
     atom   14 type  3   force =    -0.00000836   -0.00032602   -0.00000369
     atom   15 type  3   force =    -0.00014941   -0.00015919    0.00010449
     atom   16 type  3   force =     0.00014941    0.00015919    0.00010449
     atom   17 type  3   force =    -0.00014941    0.00015919   -0.00010449
     atom   18 type  3   force =     0.00014941   -0.00015919   -0.00010449
     atom   19 type  3   force =     0.00018936    0.00014791   -0.00010806
     atom   20 type  3   force =    -0.00018936   -0.00014791   -0.00010806
     atom   21 type  3   force =     0.00018936   -0.00014791    0.00010806
     atom   22 type  3   force =    -0.00018936    0.00014791    0.00010806

     Total force =     0.001212     Total SCF correction =     0.000001


     Computing stress (Cartesian axis) and pressure

          total   stress  (Ry/bohr**3)                   (kbar)     P=        4.12
   0.00002637   0.00000000   0.00000000            3.88        0.00        0.00
   0.00000000   0.00002630   0.00000000            0.00        3.87        0.00
   0.00000000   0.00000000   0.00003127            0.00        0.00        4.60

     Volume is kept fixed: isostatic pressure set to zero
     Energy error            =      1.2E-05 Ry
     Gradient error          =      3.3E-04 Ry/Bohr
     Cell gradient error     =      4.8E-01 kbar

     number of scf cycles    =   4
     number of bfgs steps    =   3

     enthalpy           old  =    -156.4745448637 Ry
     enthalpy           new  =    -156.4745568723 Ry

     CASE: enthalpy          _new < enthalpy          _old

     new trust radius        =       0.0008702483 bohr
ibrav =      8
 celldm(1) =     12.55037234
 celldm(2) =      1.02563065
 celldm(3) =      0.69325073
Input lattice vectors:
     0.99956856     0.00000000     0.00000000
     0.00000000     1.02518816     0.00000000
     0.00000000     0.00000000     0.69295164
New lattice vectors in INITIAL alat:
     0.99956856     0.00000000     0.00000000
     0.00000000     1.02518816     0.00000000
     0.00000000     0.00000000     0.69295164
New lattice vectors in NEW alat (for information only):
     1.00000000     0.00000000     0.00000000
     0.00000000     1.02563065     0.00000000
     0.00000000     0.00000000     0.69325073
Discrepancy in bohr =     0.000000    0.000000    0.000000
     new conv_thr            =            1.2E-12 Ry

     new unit-cell volume =   1405.56573 a.u.^3 (   208.28335 Ang^3 )
     density =      2.66301 g/cm^3

CELL_PARAMETERS (alat= 12.55578938)
   0.999568562   0.000000000   0.000000000
   0.000000000   1.025188155   0.000000000
   0.000000000   0.000000000   0.692951640

ATOMIC_POSITIONS (crystal)
Ba               0.5000000000        0.5000000000        0.5001057193
Ba               0.0000000000        0.0000000000        0.9998942807
B                0.6101934309        0.2390049714        0.0000586304
B                0.3898065691        0.7609950286        0.0000586304
B                0.1101934309        0.2609950286        0.4999413696
B                0.8898065691        0.7390049714        0.4999413696
H                0.4332054235        0.2923270660        0.0002185823
H                0.5667945765        0.7076729340        0.0002185823
H                0.9332054235        0.2076729340        0.4997814177
H                0.0667945765        0.7923270660        0.4997814177
H                0.7226326285        0.3841424114       -0.0000053638
H                0.2773673715        0.6158575886       -0.0000053638
H                0.2226326285        0.1158575886        0.5000053638
H                0.7773673715        0.8841424114        0.5000053638
H                0.6393189344        0.1415748453        0.7794436843
H                0.3606810656        0.8584251547        0.7794436843
H                0.1393189344        0.3584251547        0.7205563157
H                0.8606810656        0.6415748453        0.7205563157
H                0.3604836007        0.8584683886        0.2205748476
H                0.6395163993        0.1415316114        0.2205748476
H                0.8604836007        0.6415316114        0.2794251524
H                0.1395163993        0.3584683886        0.2794251524



     Writing config-only to output data dir ./pwscf.save/ :
     XML data file
     NEW-OLD atomic charge density approx. for the potential

     total cpu time spent up to now is      672.6 secs

     Self-consistent Calculation

     iteration #  1     ecut=   100.00 Ry     beta= 0.70
     Davidson diagonalization with overlap
     ethr =  1.00E-06,  avg # of iterations =  1.0

     Threshold (ethr) on eigenvalues was too large:
     Diagonalizing with lowered threshold

     Davidson diagonalization with overlap
     ethr =  2.40E-10,  avg # of iterations =  4.2

     total cpu time spent up to now is      704.9 secs

     total energy              =    -156.47455912 Ry
     estimated scf accuracy    <       0.00000033 Ry

     iteration #  2     ecut=   100.00 Ry     beta= 0.70
     Davidson diagonalization with overlap
     ethr =  6.80E-10,  avg # of iterations =  2.0

     total cpu time spent up to now is      719.5 secs

     total energy              =    -156.47455919 Ry
     estimated scf accuracy    <       0.00000003 Ry

     iteration #  3     ecut=   100.00 Ry     beta= 0.70
     Davidson diagonalization with overlap
     ethr =  7.17E-11,  avg # of iterations =  2.0

     total cpu time spent up to now is      734.1 secs

     total energy              =    -156.47455920 Ry
     estimated scf accuracy    <          9.1E-10 Ry

     iteration #  4     ecut=   100.00 Ry     beta= 0.70
     Davidson diagonalization with overlap
     ethr =  1.90E-12,  avg # of iterations =  4.1

     total cpu time spent up to now is      751.1 secs

     total energy              =    -156.47455920 Ry
     estimated scf accuracy    <          1.5E-10 Ry

     iteration #  5     ecut=   100.00 Ry     beta= 0.70
     Davidson diagonalization with overlap
     ethr =  3.09E-13,  avg # of iterations =  3.8

     total cpu time spent up to now is      767.5 secs

     total energy              =    -156.47455920 Ry
     estimated scf accuracy    <          2.8E-12 Ry

     iteration #  6     ecut=   100.00 Ry     beta= 0.70
     Davidson diagonalization with overlap
     ethr =  1.00E-13,  avg # of iterations =  2.3

     total cpu time spent up to now is      780.0 secs

     End of self-consistent calculation

          k = 0.0000 0.0000 0.0000 ( 23753 PWs)   bands (ev):

   -23.6147 -23.6041  -9.2206  -9.1213  -8.8990  -8.8550  -8.8277  -8.7550
    -5.9197  -4.9236  -4.1676  -4.0251  -1.6287  -0.6871  -0.5903  -0.2467
     0.1416   0.1649   0.2215   0.3350   0.5057   0.9463   0.9584   1.0051

          k = 0.0000 0.0000 0.3608 ( 23738 PWs)   bands (ev):

   -23.6057 -23.5982  -9.1137  -9.1134  -9.0874  -9.0460  -8.8785  -8.8543
    -5.3732  -4.6338  -4.3635  -4.2762  -1.2236  -0.9565  -0.5007  -0.4401
    -0.2847  -0.1566   0.2299   0.5331   0.7255   0.7779   0.8564   1.0111

          k = 0.0000 0.0000-0.7216 ( 23760 PWs)   bands (ev):

   -23.5945 -23.5945  -9.3568  -9.3566  -8.9510  -8.9509  -8.8881  -8.8881
    -4.6148  -4.6144  -4.5471  -4.5465  -0.9868  -0.9862  -0.9741  -0.9726
     0.1280   0.1288   0.2337   0.2355   0.8274   0.8275   0.8392   0.8395

          k = 0.0000 0.2439 0.0000 ( 23709 PWs)   bands (ev):

   -23.6131 -23.6056  -9.1882  -9.0862  -8.9628  -8.8961  -8.8168  -8.7654
    -5.7020  -4.8230  -4.4828  -4.1683  -1.2387  -0.7859  -0.7640   0.0396
     0.0605   0.0879   0.3877   0.5159   0.6026   0.6045   0.8535   0.9289

          k = 0.0000 0.2439 0.3608 ( 23733 PWs)   bands (ev):

   -23.6046 -23.5993  -9.1663  -9.1229  -9.0287  -9.0133  -8.8898  -8.8800
    -5.2624  -4.7157  -4.4063  -4.3170  -1.0259  -0.9822  -0.7913  -0.1892
    -0.1410   0.0608   0.0719   0.5888   0.6592   0.7187   0.8202   0.8807

          k = 0.0000 0.2439-0.7216 ( 23716 PWs)   bands (ev):

   -23.5945 -23.5945  -9.3722  -9.3720  -8.9292  -8.9291  -8.8870  -8.8870
    -4.9371  -4.9371  -4.2112  -4.2111  -1.1190  -1.1184  -0.7815  -0.7807
     0.2126   0.2129   0.2705   0.2721   0.6391   0.6391   0.8351   0.8353

          k = 0.0000-0.4877 0.0000 ( 23724 PWs)   bands (ev):

   -23.6094 -23.6094  -9.0947  -9.0947  -8.9899  -8.9899  -8.7909  -8.7909
    -5.1627  -5.1627  -4.4830  -4.4830  -0.9150  -0.9150  -0.2717  -0.2717
    -0.0274  -0.0274   0.5153   0.5153   0.6458   0.6458   0.7750   0.7750

          k = 0.0000-0.4877 0.3608 ( 23726 PWs)   bands (ev):

   -23.6020 -23.6020  -9.1663  -9.1663  -8.9619  -8.9619  -8.9261  -8.9261
    -4.9875  -4.9875  -4.3892  -4.3892  -0.9681  -0.9681  -0.5442  -0.5442
     0.1187   0.1187   0.4102   0.4102   0.5735   0.5735   0.7937   0.7937

          k = 0.0000-0.4877-0.7216 ( 23740 PWs)   bands (ev):

   -23.5945 -23.5945  -9.3862  -9.3862  -8.9106  -8.9106  -8.8839  -8.8839
    -5.0813  -5.0813  -4.0534  -4.0534  -1.2155  -1.2155  -0.5147  -0.5147
     0.1292   0.1292   0.3434   0.3434   0.4361   0.4361   0.8732   0.8732

          k = 0.2501 0.0000 0.0000 ( 23732 PWs)   bands (ev):

   -23.6131 -23.6056  -9.1766  -9.1010  -8.9494  -8.9171  -8.8169  -8.7654
    -5.7108  -4.9469  -4.2161  -4.1968  -1.4271  -0.5300  -0.5044  -0.3811
     0.1866   0.2298   0.2915   0.3662   0.4624   0.4964   0.9077   0.9464

          k = 0.2501 0.0000 0.3608 ( 23742 PWs)   bands (ev):

   -23.6046 -23.5993  -9.1565  -9.1365  -9.0614  -8.9858  -8.9084  -8.8661
    -5.2129  -4.6103  -4.4176  -4.4017  -1.1961  -0.9389  -0.7981  -0.2351
    -0.2258   0.0686   0.3035   0.4435   0.5927   0.7235   0.9292   0.9578

          k = 0.2501 0.0000-0.7216 ( 23774 PWs)   bands (ev):

   -23.5945 -23.5945  -9.3778  -9.3777  -8.9346  -8.9346  -8.8843  -8.8843
    -4.7218  -4.7214  -4.4051  -4.4048  -1.4815  -1.4810  -0.4989  -0.4986
     0.1272   0.1276   0.4858   0.4872   0.6154   0.6155   0.8706   0.8710

          k = 0.2501 0.2439 0.0000 ( 23729 PWs)   bands (ev):

[...]
     0.99610252     0.00000000     0.00000000
     0.00000000     1.02604578     0.00000000
     0.00000000     0.00000000     0.69478162
New lattice vectors in INITIAL alat:
     0.99610252     0.00000000     0.00000000
     0.00000000     1.02604578     0.00000000
     0.00000000     0.00000000     0.69478162
New lattice vectors in NEW alat (for information only):
     1.00000000     0.00000000     0.00000000
     0.00000000     1.03006043     0.00000000
     0.00000000     0.00000000     0.69750011
Discrepancy in bohr =     0.000000    0.000000    0.000000
     new conv_thr            =            1.0E-12 Ry

     new unit-cell volume =   1405.56573 a.u.^3 (   208.28335 Ang^3 )
     density =      2.66301 g/cm^3

CELL_PARAMETERS (alat= 12.55578938)
   0.996102516   0.000000000   0.000000000
   0.000000000   1.026045782   0.000000000
   0.000000000   0.000000000   0.694781617

ATOMIC_POSITIONS (crystal)
Ba               0.5000000000        0.5000000000        0.5000072491
Ba               0.0000000000        0.0000000000        0.9999927509
B                0.6080704341        0.2377267575       -0.0000033954
B                0.3919295659        0.7622732425       -0.0000033954
B                0.1080704341        0.2622732425        0.5000033954
B                0.8919295659        0.7377267575        0.5000033954
H                0.4309799568        0.2926767221       -0.0000130980
H                0.5690200432        0.7073232779       -0.0000130980
H                0.9309799568        0.2073232779        0.5000130980
H                0.0690200432        0.7926767221        0.5000130980
H                0.7224395821        0.3815967418        0.0000190601
H                0.2775604179        0.6184032582        0.0000190601
H                0.2224395821        0.1184032582        0.4999809399
H                0.7775604179        0.8815967418        0.4999809399
H                0.6364722775        0.1399175800        0.7802064645
H                0.3635277225        0.8600824200        0.7802064645
H                0.1364722775        0.3600824200        0.7197935355
H                0.8635277225        0.6399175800        0.7197935355
H                0.3635455963        0.8600751937        0.2197946732
H                0.6364544037        0.1399248063        0.2197946732
H                0.8635455963        0.6399248063        0.2802053268
H                0.1364544037        0.3600751937        0.2802053268



     Writing config-only to output data dir ./pwscf.save/ :
     XML data file
     NEW-OLD atomic charge density approx. for the potential

     total cpu time spent up to now is     7684.2 secs

     Self-consistent Calculation

     iteration #  1     ecut=   100.00 Ry     beta= 0.70
     Davidson diagonalization with overlap
     ethr =  1.00E-06,  avg # of iterations =  1.0

     Threshold (ethr) on eigenvalues was too large:
     Diagonalizing with lowered threshold

     Davidson diagonalization with overlap
     ethr =  2.77E-13,  avg # of iterations =  4.3

     total cpu time spent up to now is     7716.4 secs

     total energy              =    -156.47465453 Ry
     estimated scf accuracy    <          3.4E-11 Ry

     iteration #  2     ecut=   100.00 Ry     beta= 0.70
     Davidson diagonalization with overlap
     ethr =  1.00E-13,  avg # of iterations =  1.7

     total cpu time spent up to now is     7728.6 secs

     total energy              =    -156.47465453 Ry
     estimated scf accuracy    <          1.6E-12 Ry

     iteration #  3     ecut=   100.00 Ry     beta= 0.70
     Davidson diagonalization with overlap
     ethr =  1.00E-13,  avg # of iterations =  1.0

     total cpu time spent up to now is     7740.2 secs

     End of self-consistent calculation

          k = 0.0000 0.0000 0.0000 ( 23753 PWs)   bands (ev):

   -23.6279 -23.6173  -9.2240  -9.1221  -8.9054  -8.8629  -8.8377  -8.7656
    -5.9139  -4.9187  -4.1672  -4.0106  -1.6175  -0.6861  -0.5889  -0.2485
     0.1605   0.2059   0.2118   0.3707   0.5006   0.9560   0.9692   1.0131

          k = 0.0000 0.0000 0.3598 ( 23738 PWs)   bands (ev):

   -23.6192 -23.6117  -9.1191  -9.1148  -9.0884  -9.0497  -8.8858  -8.8628
    -5.3781  -4.6398  -4.3563  -4.2600  -1.2210  -0.9358  -0.4567  -0.4384
    -0.2907  -0.1568   0.2301   0.5382   0.7313   0.7950   0.8771   1.0293

          k = 0.0000 0.0000-0.7197 ( 23760 PWs)   bands (ev):

   -23.6083 -23.6083  -9.3515  -9.3515  -8.9593  -8.9593  -8.8958  -8.8958
    -4.6293  -4.6293  -4.5303  -4.5302  -0.9832  -0.9830  -0.9390  -0.9389
     0.1258   0.1260   0.2337   0.2337   0.8470   0.8471   0.8537   0.8537

          k = 0.0000 0.2437 0.0000 ( 23709 PWs)   bands (ev):

   -23.6263 -23.6189  -9.1918  -9.0875  -8.9688  -8.9030  -8.8269  -8.7759
    -5.6962  -4.8127  -4.4867  -4.1576  -1.2229  -0.7796  -0.7627   0.0453
     0.0591   0.0898   0.4187   0.5433   0.6092   0.6164   0.8631   0.9395

          k = 0.0000 0.2437 0.3598 ( 23733 PWs)   bands (ev):

   -23.6181 -23.6128  -9.1690  -9.1244  -9.0329  -9.0174  -8.8966  -8.8880
    -5.2673  -4.7208  -4.3993  -4.3029  -1.0206  -0.9621  -0.7689  -0.1838
    -0.1267   0.0564   0.0766   0.5984   0.6618   0.7377   0.8342   0.8968

          k = 0.0000 0.2437-0.7197 ( 23716 PWs)   bands (ev):

   -23.6083 -23.6083  -9.3673  -9.3673  -8.9374  -8.9374  -8.8946  -8.8946
    -4.9375  -4.9375  -4.2093  -4.2093  -1.0816  -1.0816  -0.7786  -0.7784
     0.2073   0.2074   0.2724   0.2724   0.6485   0.6486   0.8564   0.8564

          k = 0.0000-0.4873 0.0000 ( 23724 PWs)   bands (ev):

   -23.6226 -23.6226  -9.0985  -9.0985  -8.9948  -8.9948  -8.8012  -8.8012
    -5.1552  -5.1552  -4.4803  -4.4803  -0.8995  -0.8995  -0.2692  -0.2692
    -0.0289  -0.0289   0.5256   0.5256   0.6711   0.6711   0.7892   0.7892

          k = 0.0000-0.4873 0.3598 ( 23726 PWs)   bands (ev):

   -23.6154 -23.6154  -9.1683  -9.1683  -8.9663  -8.9663  -8.9333  -8.9333
    -4.9921  -4.9921  -4.3795  -4.3795  -0.9464  -0.9464  -0.5393  -0.5393
     0.1351   0.1351   0.4023   0.4023   0.5911   0.5911   0.8053   0.8053

          k = 0.0000-0.4873-0.7197 ( 23740 PWs)   bands (ev):

   -23.6083 -23.6083  -9.3816  -9.3816  -8.9190  -8.9190  -8.8913  -8.8913
    -5.0810  -5.0810  -4.0528  -4.0528  -1.1762  -1.1762  -0.5083  -0.5083
     0.1144   0.1144   0.3439   0.3439   0.4546   0.4546   0.8871   0.8871

          k = 0.2510 0.0000 0.0000 ( 23732 PWs)   bands (ev):

   -23.6263 -23.6188  -9.1802  -9.1032  -8.9553  -8.9245  -8.8269  -8.7759
    -5.7039  -4.9413  -4.2138  -4.1836  -1.4186  -0.5224  -0.5041  -0.3743
     0.1868   0.2417   0.3096   0.4020   0.4715   0.4949   0.9190   0.9568

          k = 0.2510 0.0000 0.3598 ( 23742 PWs)   bands (ev):

   -23.6181 -23.6128  -9.1585  -9.1393  -9.0658  -8.9899  -8.9155  -8.8742
    -5.2153  -4.6156  -4.4017  -4.3946  -1.1903  -0.9288  -0.7778  -0.2369
    -0.2253   0.0781   0.3219   0.4590   0.6003   0.7296   0.9486   0.9769

          k = 0.2510 0.0000-0.7197 ( 23774 PWs)   bands (ev):

   -23.6083 -23.6083  -9.3731  -9.3731  -8.9430  -8.9430  -8.8922  -8.8922
    -4.7101  -4.7101  -4.4134  -4.4134  -1.4668  -1.4668  -0.4846  -0.4845
     0.1207   0.1208   0.4977   0.4977   0.6369   0.6370   0.8864   0.8866

          k = 0.2510 0.2437 0.0000 ( 23729 PWs)   bands (ev):

   -23.6252 -23.6199  -9.2124  -9.0769  -9.0164  -8.8697  -8.8191  -8.7830
    -5.5512  -4.8877  -4.4889  -4.2212  -1.1030  -0.7534  -0.5381  -0.0631
     0.0023   0.0526   0.3942   0.5484   0.5703   0.6430   0.6961   0.8665

          k = 0.2510 0.2437 0.3598 ( 23728 PWs)   bands (ev):

   -23.6173 -23.6135  -9.1620  -9.1151  -9.1107  -8.9660  -8.9293  -8.8660
    -5.1222  -4.6603  -4.4917  -4.3881  -1.1502  -0.8928  -0.7883  -0.2122
    -0.0529   0.1361   0.2366   0.4671   0.5862   0.6970   0.8592   0.9500

          k = 0.2510 0.2437-0.7197 ( 23764 PWs)   bands (ev):

   -23.6083 -23.6083  -9.3809  -9.3535  -8.9692  -8.9210  -8.9014  -8.8923
    -4.9451  -4.7463  -4.3676  -4.1633  -1.4342  -1.3562  -0.5454  -0.4392
     0.0624   0.0732   0.4575   0.5245   0.6482   0.6909   0.8239   0.8678

          k = 0.2510-0.4873 0.0000 ( 23696 PWs)   bands (ev):

   -23.6225 -23.6225  -9.1848  -9.1848  -8.9091  -8.9091  -8.8007  -8.8007
    -5.1594  -5.1594  -4.4627  -4.4627  -0.7973  -0.7973  -0.2746  -0.2746
    -0.0707  -0.0707   0.4458   0.4458   0.7123   0.7123   0.7153   0.7153

          k = 0.2510-0.4873 0.3598 ( 23708 PWs)   bands (ev):

   -23.6154 -23.6154  -9.1559  -9.1559  -9.0399  -9.0399  -8.8817  -8.8817
    -4.8912  -4.8912  -4.4568  -4.4568  -1.0511  -1.0511  -0.4365  -0.4365
     0.0957   0.0957   0.4323   0.4323   0.5856   0.5856   0.8310   0.8310

          k = 0.2510-0.4873-0.7197 ( 23732 PWs)   bands (ev):

   -23.6082 -23.6082  -9.3626  -9.3626  -8.9482  -8.9482  -8.8994  -8.8994
    -4.9577  -4.9577  -4.1406  -4.1406  -1.3144  -1.3144  -0.5536  -0.5536
     0.1922   0.1922   0.3246   0.3246   0.6853   0.6853   0.8471   0.8471

          k =-0.5020 0.0000 0.0000 ( 23768 PWs)   bands (ev):

   -23.6225 -23.6225  -9.0710  -9.0710  -9.0340  -9.0340  -8.8011  -8.8011
    -5.2400  -5.2400  -4.2929  -4.2929  -0.9744  -0.9744  -0.1475  -0.1475
     0.2262   0.2262   0.2679   0.2679   0.3617   0.3617   0.8030   0.8030

          k =-0.5020 0.0000 0.3598 ( 23714 PWs)   bands (ev):

   -23.6154 -23.6154  -9.1739  -9.1739  -8.9933  -8.9933  -8.9155  -8.9155
    -4.8363  -4.8363  -4.4741  -4.4741  -1.1133  -1.1133  -0.5151  -0.5151
     0.0955   0.0955   0.3040   0.3040   0.7014   0.7014   0.9350   0.9350

          k =-0.5020 0.0000-0.7197 ( 23772 PWs)   bands (ev):

   -23.6082 -23.6082  -9.3930  -9.3930  -8.9295  -8.9295  -8.8873  -8.8873
    -4.7551  -4.7551  -4.3290  -4.3290  -1.6935  -1.6935  -0.1633  -0.1633
     0.1162   0.1162   0.3120   0.3120   0.8332   0.8332   0.8462   0.8462

          k =-0.5020 0.2437 0.0000 ( 23752 PWs)   bands (ev):

   -23.6225 -23.6225  -9.1834  -9.1834  -8.9165  -8.9165  -8.8007  -8.8007
    -5.2057  -5.2057  -4.3652  -4.3652  -0.8513  -0.8513  -0.1420  -0.1420
     0.0011   0.0011   0.2108   0.2108   0.6130   0.6130   0.7754   0.7754

          k =-0.5020 0.2437 0.3598 ( 23740 PWs)   bands (ev):

   -23.6154 -23.6154  -9.1596  -9.1596  -9.0446  -9.0446  -8.8807  -8.8807
    -4.7901  -4.7901  -4.5269  -4.5269  -1.1175  -1.1175  -0.4714  -0.4714
     0.1205   0.1205   0.3594   0.3594   0.6852   0.6852   0.8583   0.8583

          k =-0.5020 0.2437-0.7197 ( 23760 PWs)   bands (ev):

   -23.6082 -23.6082  -9.3689  -9.3689  -8.9512  -8.9512  -8.8990  -8.8990
    -4.7768  -4.7768  -4.2966  -4.2966  -1.5816  -1.5816  -0.3787  -0.3787
     0.1589   0.1589   0.3927   0.3927   0.7610   0.7610   0.8996   0.8996

          k =-0.5020-0.4873 0.0000 ( 23692 PWs)   bands (ev):

   -23.6225 -23.6225  -9.2353  -9.2353  -8.8593  -8.8593  -8.8002  -8.8002
    -5.1660  -5.1660  -4.4414  -4.4414  -0.6727  -0.6727  -0.3050  -0.3050
    -0.1085  -0.1085   0.4127   0.4127   0.5951   0.5951   0.7494   0.7494

          k =-0.5020-0.4873 0.3598 ( 23752 PWs)   bands (ev):

   -23.6154 -23.6154  -9.1330  -9.1330  -9.0936  -9.0936  -8.8605  -8.8605
    -4.7109  -4.7109  -4.6122  -4.6122  -1.1034  -1.1034  -0.5068  -0.5068
     0.3065   0.3065   0.4169   0.4169   0.6007   0.6007   0.7458   0.7458

          k =-0.5020-0.4873-0.7197 ( 23752 PWs)   bands (ev):

   -23.6082 -23.6082  -9.3410  -9.3410  -8.9801  -8.9801  -8.9070  -8.9070
    -4.7967  -4.7967  -4.2656  -4.2656  -1.4121  -1.4121  -0.6887  -0.6887
     0.4297   0.4297   0.4398   0.4398   0.6226   0.6226   0.8550   0.8550

     highest occupied level (ev):     1.0293

!    total energy              =    -156.47465453 Ry
     estimated scf accuracy    <          4.0E-14 Ry

     The total energy is the sum of the following terms:
     one-electron contribution =     -19.95570065 Ry
     hartree contribution      =      24.74294405 Ry
     xc contribution           =     -49.17175024 Ry
     ewald contribution        =    -112.09014769 Ry

     convergence has been achieved in   3 iterations

     Forces acting on atoms (cartesian axes, Ry/au):

     atom    1 type  2   force =     0.00000000    0.00000000   -0.00001036
     atom    2 type  2   force =     0.00000000    0.00000000    0.00001036
     atom    3 type  1   force =     0.00000143    0.00000110    0.00000661
     atom    4 type  1   force =    -0.00000143   -0.00000110    0.00000661
     atom    5 type  1   force =     0.00000143   -0.00000110   -0.00000661
     atom    6 type  1   force =    -0.00000143    0.00000110   -0.00000661
     atom    7 type  3   force =     0.00000066   -0.00000298   -0.00000017
     atom    8 type  3   force =    -0.00000066    0.00000298   -0.00000017
     atom    9 type  3   force =     0.00000066    0.00000298    0.00000017
     atom   10 type  3   force =    -0.00000066   -0.00000298    0.00000017
     atom   11 type  3   force =     0.00000281    0.00000064   -0.00001026
     atom   12 type  3   force =    -0.00000281   -0.00000064   -0.00001026
     atom   13 type  3   force =     0.00000281   -0.00000064    0.00001026
     atom   14 type  3   force =    -0.00000281    0.00000064    0.00001026
     atom   15 type  3   force =    -0.00000356    0.00000820    0.00000361
     atom   16 type  3   force =     0.00000356   -0.00000820    0.00000361
     atom   17 type  3   force =    -0.00000356   -0.00000820   -0.00000361
     atom   18 type  3   force =     0.00000356    0.00000820   -0.00000361
     atom   19 type  3   force =     0.00000042    0.00000745    0.00000384
     atom   20 type  3   force =    -0.00000042   -0.00000745    0.00000384
     atom   21 type  3   force =     0.00000042   -0.00000745   -0.00000384
     atom   22 type  3   force =    -0.00000042    0.00000745   -0.00000384

     Total force =     0.000039     Total SCF correction =     0.000000


     Computing stress (Cartesian axis) and pressure

          total   stress  (Ry/bohr**3)                   (kbar)     P=        2.78
   0.00001891   0.00000000   0.00000000            2.78        0.00        0.00
   0.00000000   0.00001890   0.00000000            0.00        2.78        0.00
   0.00000000   0.00000000   0.00001890            0.00        0.00        2.78

     Volume is kept fixed: isostatic pressure set to zero
     Message from routine bfgs:
     history already reset at previous step: exiting
     Energy error            =      2.0E-09 Ry
     Gradient error          =      1.0E-05 Ry/Bohr
     Cell gradient error     =      6.4E-04 kbar
ibrav =      8
 celldm(1) =     12.50685340
 celldm(2) =      1.03006043
 celldm(3) =      0.69750011
Input lattice vectors:
     0.99610252     0.00000000     0.00000000
     0.00000000     1.02604578     0.00000000
     0.00000000     0.00000000     0.69478162
New lattice vectors in INITIAL alat:
     0.99610252     0.00000000     0.00000000
     0.00000000     1.02604578     0.00000000
     0.00000000     0.00000000     0.69478162
New lattice vectors in NEW alat (for information only):
     1.00000000     0.00000000     0.00000000
     0.00000000     1.03006043     0.00000000
     0.00000000     0.00000000     0.69750011
Discrepancy in bohr =     0.000000    0.000000    0.000000

     bfgs failed after  56 scf cycles and  55 bfgs steps, convergence not achieved
     (criteria: energy <  1.0E-05 Ry, force <  1.0E-05 Ry/Bohr, cell <  5.0E-01 kbar)

     End of BFGS Geometry Optimization

     Final enthalpy           =    -156.4746545276 Ry

     File ./pwscf.bfgs deleted, as requested
Begin final coordinates
     new unit-cell volume =   1405.56573 a.u.^3 (   208.28335 Ang^3 )
     density =      2.66301 g/cm^3

CELL_PARAMETERS (alat= 12.55578938)
   0.996102516   0.000000000   0.000000000
   0.000000000   1.026045782   0.000000000
   0.000000000   0.000000000   0.694781617

ATOMIC_POSITIONS (crystal)
Ba               0.5000000000        0.5000000000        0.5000072491
Ba               0.0000000000        0.0000000000        0.9999927509
B                0.6080704341        0.2377267575       -0.0000033954
B                0.3919295659        0.7622732425       -0.0000033954
B                0.1080704341        0.2622732425        0.5000033954
B                0.8919295659        0.7377267575        0.5000033954
H                0.4309799568        0.2926767221       -0.0000130980
H                0.5690200432        0.7073232779       -0.0000130980
H                0.9309799568        0.2073232779        0.5000130980
H                0.0690200432        0.7926767221        0.5000130980
H                0.7224395821        0.3815967418        0.0000190601
H                0.2775604179        0.6184032582        0.0000190601
H                0.2224395821        0.1184032582        0.4999809399
H                0.7775604179        0.8815967418        0.4999809399
H                0.6364722775        0.1399175800        0.7802064645
H                0.3635277225        0.8600824200        0.7802064645
H                0.1364722775        0.3600824200        0.7197935355
H                0.8635277225        0.6399175800        0.7197935355
H                0.3635455963        0.8600751937        0.2197946732
H                0.6364544037        0.1399248063        0.2197946732
H                0.8635455963        0.6399248063        0.2802053268
H                0.1364544037        0.3600751937        0.2802053268
End final coordinates



     Writing config-only to output data dir ./pwscf.save/ :
     XML data file

     Writing all to output data dir ./pwscf.save/ :
     XML data file, charge density, pseudopotentials, collected wavefunctions

     init_run     :      9.20s CPU     10.93s WALL (       1 calls)
     electrons    :   6034.94s CPU   6082.29s WALL (      56 calls)
     update_pot   :     12.85s CPU     14.01s WALL (      55 calls)
     forces       :    171.92s CPU    173.26s WALL (      56 calls)
     stress       :   1470.96s CPU   1473.47s WALL (      56 calls)

     Called by init_run:
     wfcinit      :      6.49s CPU      6.54s WALL (       1 calls)
     potinit      :      0.72s CPU      1.39s WALL (       1 calls)
     hinit0       :      1.16s CPU      2.10s WALL (       1 calls)

     Called by electrons:
     c_bands      :   5283.32s CPU   5317.57s WALL (     384 calls)
     sum_band     :    643.96s CPU    650.85s WALL (     384 calls)
     v_of_rho     :     48.30s CPU     50.55s WALL (     387 calls)
     newd         :     64.49s CPU     65.33s WALL (     387 calls)
     mix_rho      :      4.80s CPU      5.28s WALL (     384 calls)

     Called by c_bands:
     init_us_2    :    132.97s CPU    134.34s WALL (   23787 calls)
     cegterg      :   4649.47s CPU   4681.81s WALL (   10368 calls)

     Called by *egterg:
     cdiaghg      :     66.93s CPU     67.39s WALL (   37757 calls)
     h_psi        :   3267.37s CPU   3293.79s WALL (   40700 calls)
     s_psi        :    622.74s CPU    624.97s WALL (   40700 calls)
     g_psi        :     11.70s CPU     11.75s WALL (   30305 calls)

     Called by h_psi:
     h_psi:calbec :    546.16s CPU    548.84s WALL (   40700 calls)
     vloc_psi     :   2086.20s CPU   2108.02s WALL (   40700 calls)
     add_vuspsi   :    624.84s CPU    626.94s WALL (   40700 calls)

     General routines
     calbec       :   1112.71s CPU   1116.82s WALL (   58628 calls)
     fft          :     35.47s CPU     40.26s WALL (    6427 calls)
     ffts         :      2.34s CPU      3.17s WALL (     771 calls)
     fftw         :   1952.13s CPU   1971.88s WALL ( 1716044 calls)
     interpolate  :      3.73s CPU      4.69s WALL (     387 calls)
     davcio       :      0.01s CPU      0.06s WALL (      27 calls)

     Parallel routines

     PWSCF        :      2h 8m CPU      2h 9m WALL


   This run was terminated on:  17:40:10  11Jul2024            

=------------------------------------------------------------------------------=
   JOB DONE.
=------------------------------------------------------------------------------=
