
     Program PWSCF v.7.3.1 starts on 11Jul2024 at 15:30:39 

     This program is part of the open-source Quantum ESPRESSO suite
     for quantum simulation of materials; please cite
         "P. Giannozzi et al., J. Phys.:Condens. Matter 21 395502 (2009);
         "P. Giannozzi et al., J. Phys.:Condens. Matter 29 465901 (2017);
         "P. Giannozzi et al., J. Chem. Phys. 152 154105 (2020);
          URL http://www.quantum-espresso.org", 
     in publications or presentations arising from this work. More details at
     http://www.quantum-espresso.org/quote

     Parallel version (MPI), running on    24 processors

     MPI processes distributed on     1 nodes
     94497 MiB available memory on the printing compute node when the environment starts

     Waiting for input...
     Reading input from standard input

     Current dimensions of program PWSCF are:
     Max number of different atomic species (ntypx) = 10
     Max number of k-points (npk) =  40000
     Max angular momentum in pseudopotentials (lmaxx) =  4

     R & G space division:  proc/nbgrp/npool/nimage =      24
     Subspace diagonalization in iterative solution of the eigenvalue problem:
     a serial algorithm will be used


     Parallelization info
     --------------------
     sticks:   dense  smooth     PW     G-vecs:    dense   smooth      PW
     Min         443     221     60                23514     8311    1198
     Max         445     222     61                23516     8314    1203
     Sum       10647    5327   1461               564361   199503   28817

     Using Slab Decomposition


     Title: 
     volume variation                                                           


     bravais-lattice index     =            8
     lattice parameter (alat)  =      12.7647  a.u.
     unit-cell volume          =    1476.9142 (a.u.)^3
     number of atoms/cell      =           22
     number of atomic types    =            3
     number of electrons       =        48.00
     number of Kohn-Sham states=           24
     kinetic-energy cutoff     =     100.0000  Ry
     charge density cutoff     =     800.0000  Ry
     scf convergence threshold =      1.0E-10
     mixing beta               =       0.7000
     number of iterations used =            8  plain     mixing
     energy convergence thresh.=      1.0E-05
     force convergence thresh. =      1.0E-05
     press convergence thresh. =      5.0E-01
     Exchange-correlation= PBESOL
                           (   1   4  10   8   0   0   0)
     nstep                     =          100


     celldm(1)=  12.764743  celldm(2)=   1.025571  celldm(3)=   0.692394
     celldm(4)=   0.000000  celldm(5)=   0.000000  celldm(6)=   0.000000

     crystal axes: (cart. coord. in units of alat)
               a(1) = (   1.000000   0.000000   0.000000 )  
               a(2) = (   0.000000   1.025571   0.000000 )  
               a(3) = (   0.000000   0.000000   0.692394 )  

     reciprocal axes: (cart. coord. in units 2 pi/alat)
               b(1) = (  1.000000  0.000000  0.000000 )  
               b(2) = (  0.000000  0.975067  0.000000 )  
               b(3) = (  0.000000  0.000000  1.444264 )  


     PseudoPot. # 1 for B  read from file:
     /home/mehlhorn/pseudos/b_pbesol_v1.4.uspp.F.UPF
     MD5 check sum: 369b69bef2c3aeed4453bd8b804fd6a8
     Pseudo is Ultrasoft + core correction, Zval =  3.0
     Generated by new atomic code, or converted to UPF format
     Using radial grid of  781 points,  4 beta functions with: 
                l(1) =   0
                l(2) =   0
                l(3) =   1
                l(4) =   1
     Q(r) pseudized with  8 coefficients,  rinner =    1.100   1.100   1.100


     PseudoPot. # 2 for Ba read from file:
     /home/mehlhorn/pseudos/Ba.nc.z_10.oncvpsp4.dojo.v4-sp.upf
     MD5 check sum: c10ed334bb677c0554edec7181ce9143
     Pseudo is Norm-conserving + core correction, Zval = 10.0
     Generated using ONCVPSP code by D. R. Hamann
     Using radial grid of 1938 points,  8 beta functions with: 
                l(1) =   0
                l(2) =   0
                l(3) =   1
                l(4) =   1
                l(5) =   2
                l(6) =   2
                l(7) =   3
                l(8) =   3

     PseudoPot. # 3 for H  read from file:
     /home/mehlhorn/pseudos/H_ONCV_PBEsol-1.0.upf
     MD5 check sum: 398ef8f67c0a7342c05c87c5e19ea467
     Pseudo is Norm-conserving, Zval =  1.0
     Generated using ONCVPSP code by D. R. Hamann
     Using radial grid of 1180 points,  2 beta functions with: 
                l(1) =   0
                l(2) =   0

     atomic species   valence    mass     pseudopotential
     B                 3.00    10.81100     B ( 1.00)
     Ba               10.00   137.32700     Ba( 1.00)
     H                 1.00     1.00794     H ( 1.00)

      4 Sym. Ops. (no inversion) found ( 2 have fractional translation)



   Cartesian axes

     site n.     atom                  positions (alat units)
         1        Ba     tau(   1) = (   0.5000000   0.5127855   0.3462657  )
         2        Ba     tau(   2) = (   0.0000000   0.0000000   0.6923255  )
         3        B      tau(   3) = (   0.6102570   0.2453190   0.0000455  )
         4        B      tau(   4) = (   0.3897430   0.7802519   0.0000455  )
         5        B      tau(   5) = (   0.1102570   0.2674665   0.3461516  )
         6        B      tau(   6) = (   0.8897430   0.7581045   0.3461516  )
         7        H      tau(   7) = (   0.4340973   0.2996264   0.0001599  )
         8        H      tau(   8) = (   0.5659027   0.7259445   0.0001599  )
         9        H      tau(   9) = (   0.9340973   0.2131590   0.3460372  )
        10        H      tau(  10) = (   0.0659027   0.8124119   0.3460372  )
        11        H      tau(  11) = (   0.7220603   0.3933629  -0.0000058  )
        12        H      tau(  12) = (   0.2779397   0.6322081  -0.0000058  )
        13        H      tau(  13) = (   0.2220603   0.1194226   0.3462029  )
        14        H      tau(  14) = (   0.7779397   0.9061483   0.3462029  )
        15        H      tau(  15) = (   0.6392499   0.1457279   0.5404125  )
        16        H      tau(  16) = (   0.3607501   0.8798430   0.5404125  )
        17        H      tau(  17) = (   0.1392499   0.3670576   0.4981787  )
        18        H      tau(  18) = (   0.8607501   0.6585133   0.4981787  )
        19        H      tau(  19) = (   0.3605328   0.8798946   0.1519977  )
        20        H      tau(  20) = (   0.6394672   0.1456763   0.1519977  )
        21        H      tau(  21) = (   0.8605328   0.6584617   0.1941994  )
        22        H      tau(  22) = (   0.1394672   0.3671092   0.1941994  )

     number of k points=    27
                       cart. coord. in units 2pi/alat
        k(    1) = (   0.0000000   0.0000000   0.0000000), wk =   0.0312500
        k(    2) = (   0.0000000   0.0000000   0.3610660), wk =   0.0625000
        k(    3) = (   0.0000000   0.0000000  -0.7221320), wk =   0.0312500
        k(    4) = (   0.0000000   0.2437667   0.0000000), wk =   0.0625000
        k(    5) = (   0.0000000   0.2437667   0.3610660), wk =   0.1250000
        k(    6) = (   0.0000000   0.2437667  -0.7221320), wk =   0.0625000
        k(    7) = (   0.0000000  -0.4875333   0.0000000), wk =   0.0312500
        k(    8) = (   0.0000000  -0.4875333   0.3610660), wk =   0.0625000
        k(    9) = (   0.0000000  -0.4875333  -0.7221320), wk =   0.0312500
        k(   10) = (   0.2500000   0.0000000   0.0000000), wk =   0.0625000
        k(   11) = (   0.2500000   0.0000000   0.3610660), wk =   0.1250000
        k(   12) = (   0.2500000   0.0000000  -0.7221320), wk =   0.0625000
        k(   13) = (   0.2500000   0.2437667   0.0000000), wk =   0.1250000
        k(   14) = (   0.2500000   0.2437667   0.3610660), wk =   0.2500000
        k(   15) = (   0.2500000   0.2437667  -0.7221320), wk =   0.1250000
        k(   16) = (   0.2500000  -0.4875333   0.0000000), wk =   0.0625000
        k(   17) = (   0.2500000  -0.4875333   0.3610660), wk =   0.1250000
        k(   18) = (   0.2500000  -0.4875333  -0.7221320), wk =   0.0625000
        k(   19) = (  -0.5000000   0.0000000   0.0000000), wk =   0.0312500
        k(   20) = (  -0.5000000   0.0000000   0.3610660), wk =   0.0625000
        k(   21) = (  -0.5000000   0.0000000  -0.7221320), wk =   0.0312500
        k(   22) = (  -0.5000000   0.2437667   0.0000000), wk =   0.0625000
        k(   23) = (  -0.5000000   0.2437667   0.3610660), wk =   0.1250000
        k(   24) = (  -0.5000000   0.2437667  -0.7221320), wk =   0.0625000
        k(   25) = (  -0.5000000  -0.4875333   0.0000000), wk =   0.0312500
        k(   26) = (  -0.5000000  -0.4875333   0.3610660), wk =   0.0625000
        k(   27) = (  -0.5000000  -0.4875333  -0.7221320), wk =   0.0312500

     Dense  grid:   564361 G-vectors     FFT dimensions: ( 120, 120,  80)

     Smooth grid:   199503 G-vectors     FFT dimensions: (  90,  90,  60)

     Estimated max dynamical RAM per process >      92.70 MB

     Estimated total dynamical RAM >       2.17 GB

     Initial potential from superposition of free atoms

     starting charge      47.9682, renormalised to      48.0000
     Starting wfcs are   42 randomized atomic wfcs

     total cpu time spent up to now is       12.2 secs

     Self-consistent Calculation

     iteration #  1     ecut=   100.00 Ry     beta= 0.70
     Davidson diagonalization with overlap
     ethr =  1.00E-02,  avg # of iterations =  2.0

     total cpu time spent up to now is       28.3 secs

     total energy              =    -155.94461881 Ry
     estimated scf accuracy    <       2.00990729 Ry

     iteration #  2     ecut=   100.00 Ry     beta= 0.70
     Davidson diagonalization with overlap
     ethr =  4.19E-03,  avg # of iterations =  2.0

     total cpu time spent up to now is       43.9 secs

     total energy              =    -156.40654272 Ry
     estimated scf accuracy    <       0.36662907 Ry

     iteration #  3     ecut=   100.00 Ry     beta= 0.70
     Davidson diagonalization with overlap
     ethr =  7.64E-04,  avg # of iterations =  2.0

     total cpu time spent up to now is       59.5 secs

     total energy              =    -156.46780516 Ry
     estimated scf accuracy    <       0.00477323 Ry

     iteration #  4     ecut=   100.00 Ry     beta= 0.70
     Davidson diagonalization with overlap
     ethr =  9.94E-06,  avg # of iterations =  5.1

     total cpu time spent up to now is       82.0 secs

     total energy              =    -156.47074745 Ry
     estimated scf accuracy    <       0.00175224 Ry

     iteration #  5     ecut=   100.00 Ry     beta= 0.70
     Davidson diagonalization with overlap
     ethr =  3.65E-06,  avg # of iterations =  3.0

     total cpu time spent up to now is       98.2 secs

     total energy              =    -156.47134946 Ry
     estimated scf accuracy    <       0.00017522 Ry

     iteration #  6     ecut=   100.00 Ry     beta= 0.70
     Davidson diagonalization with overlap
     ethr =  3.65E-07,  avg # of iterations =  4.0

     total cpu time spent up to now is      116.0 secs

     total energy              =    -156.47141345 Ry
     estimated scf accuracy    <       0.00000141 Ry

     iteration #  7     ecut=   100.00 Ry     beta= 0.70
     Davidson diagonalization with overlap
     ethr =  2.94E-09,  avg # of iterations =  9.0

     total cpu time spent up to now is      152.2 secs

     total energy              =    -156.47142426 Ry
     estimated scf accuracy    <       0.00000124 Ry

     iteration #  8     ecut=   100.00 Ry     beta= 0.70
     Davidson diagonalization with overlap
     ethr =  2.58E-09,  avg # of iterations =  2.0

     total cpu time spent up to now is      167.7 secs

     total energy              =    -156.47142451 Ry
     estimated scf accuracy    <       0.00000002 Ry

     iteration #  9     ecut=   100.00 Ry     beta= 0.70
     Davidson diagonalization with overlap
     ethr =  3.43E-11,  avg # of iterations =  6.0

     total cpu time spent up to now is      190.9 secs

     total energy              =    -156.47142453 Ry
     estimated scf accuracy    <          3.8E-09 Ry

     iteration # 10     ecut=   100.00 Ry     beta= 0.70
     Davidson diagonalization with overlap
     ethr =  7.97E-12,  avg # of iterations =  2.7

     total cpu time spent up to now is      208.5 secs

     total energy              =    -156.47142453 Ry
     estimated scf accuracy    <          4.6E-10 Ry

     iteration # 11     ecut=   100.00 Ry     beta= 0.70
     Davidson diagonalization with overlap
     ethr =  9.49E-13,  avg # of iterations =  4.0

     total cpu time spent up to now is      224.6 secs

     End of self-consistent calculation

          k = 0.0000 0.0000 0.0000 ( 24905 PWs)   bands (ev):

   -24.1191 -24.1113  -9.6165  -9.5381  -9.3623  -9.3279  -9.2963  -9.2389
    -6.0803  -5.1416  -4.5237  -4.3654  -1.8029  -0.8939  -0.8654  -0.4865
    -0.1196  -0.1136  -0.0795   0.0605   0.2168   0.6187   0.6414   0.6824

          k = 0.0000 0.0000 0.3611 ( 24930 PWs)   bands (ev):

   -24.1122 -24.1067  -9.5298  -9.5265  -9.5027  -9.4772  -9.3464  -9.3276
    -5.6065  -4.9041  -4.6777  -4.5744  -1.4397  -1.1853  -0.7258  -0.6659
    -0.5312  -0.4201  -0.0596   0.2220   0.4275   0.4538   0.5247   0.6752

          k = 0.0000 0.0000-0.7221 ( 24964 PWs)   bands (ev):

   -24.1037 -24.1037  -9.7273  -9.7271  -9.3986  -9.3985  -9.3565  -9.3565
    -4.9158  -4.9153  -4.8113  -4.8107  -1.1980  -1.1976  -1.1823  -1.1807
    -0.1279  -0.1273  -0.0826  -0.0807   0.4878   0.4879   0.5050   0.5056

          k = 0.0000 0.2438 0.0000 ( 24918 PWs)   bands (ev):

   -24.1180 -24.1125  -9.5894  -9.5104  -9.4095  -9.3596  -9.2877  -9.2471
    -5.8899  -5.0574  -4.7982  -4.4877  -1.4515  -1.0428  -0.9759  -0.2163
    -0.2124  -0.1796   0.1023   0.2165   0.3038   0.3056   0.5341   0.6130

          k = 0.0000 0.2438 0.3611 ( 24956 PWs)   bands (ev):

   -24.1114 -24.1075  -9.5690  -9.5315  -9.4619  -9.4520  -9.3541  -9.3472
    -5.5011  -4.9746  -4.7229  -4.6159  -1.2509  -1.2096  -1.0004  -0.4480
    -0.4026  -0.2074  -0.1985   0.2720   0.3562   0.3953   0.5007   0.5585

          k = 0.0000 0.2438-0.7221 ( 24964 PWs)   bands (ev):

   -24.1037 -24.1037  -9.7399  -9.7398  -9.3821  -9.3821  -9.3557  -9.3557
    -5.1644  -5.1644  -4.5536  -4.5535  -1.3094  -1.3087  -1.0166  -1.0159
    -0.0620  -0.0618  -0.0361  -0.0346   0.3229   0.3229   0.4999   0.5002

          k = 0.0000-0.4875 0.0000 ( 24922 PWs)   bands (ev):

   -24.1152 -24.1152  -9.5142  -9.5142  -9.4319  -9.4319  -9.2672  -9.2672
    -5.4086  -5.4086  -4.7602  -4.7602  -1.1607  -1.1607  -0.5185  -0.5185
    -0.2849  -0.2849   0.2182   0.2182   0.3391   0.3391   0.4701   0.4701

          k = 0.0000-0.4875 0.3611 ( 24956 PWs)   bands (ev):

   -24.1094 -24.1094  -9.5673  -9.5673  -9.4132  -9.4132  -9.3800  -9.3800
    -5.2371  -5.2371  -4.6947  -4.6947  -1.1913  -1.1913  -0.7768  -0.7768
    -0.1675  -0.1675   0.1123   0.1123   0.2711   0.2711   0.4790   0.4790

          k = 0.0000-0.4875-0.7221 ( 24944 PWs)   bands (ev):

   -24.1037 -24.1037  -9.7515  -9.7515  -9.3688  -9.3688  -9.3528  -9.3528
    -5.2843  -5.2843  -4.4250  -4.4250  -1.3962  -1.3962  -0.7854  -0.7854
    -0.1307  -0.1307   0.0413   0.0413   0.1348   0.1348   0.5366   0.5366

          k = 0.2500 0.0000 0.0000 ( 24873 PWs)   bands (ev):

   -24.1180 -24.1125  -9.5811  -9.5205  -9.4011  -9.3738  -9.2877  -9.2471
    -5.8980  -5.1835  -4.5572  -4.5126  -1.6154  -0.7713  -0.7665  -0.6154
    -0.0917  -0.0519   0.0150   0.0825   0.1778   0.2032   0.5871   0.6283

          k = 0.2500 0.0000 0.3611 ( 24937 PWs)   bands (ev):

   -24.1114 -24.1075  -9.5602  -9.5423  -9.4886  -9.4298  -9.3690  -9.3358
    -5.4619  -4.8972  -4.7060  -4.7002  -1.4093  -1.1608  -1.0136  -0.4991
    -0.4694  -0.2151   0.0178   0.1521   0.2805   0.4138   0.6036   0.6262

          k = 0.2500 0.0000-0.7221 ( 24918 PWs)   bands (ev):

   -24.1037 -24.1037  -9.7440  -9.7439  -9.3866  -9.3866  -9.3533  -9.3532
    -4.9690  -4.9686  -4.7294  -4.7291  -1.6559  -1.6554  -0.7568  -0.7564
    -0.1411  -0.1407   0.1684   0.1698   0.2987   0.2988   0.5409   0.5413

          k = 0.2500 0.2438 0.0000 ( 24929 PWs)   bands (ev):

   -24.1172 -24.1132  -9.6061  -9.4979  -9.4479  -9.3338  -9.2815  -9.2528
    -5.7581  -5.1447  -4.7848  -4.5533  -1.3323  -1.0075  -0.7817  -0.3273
    -0.2559  -0.2116   0.0885   0.2263   0.2500   0.3195   0.4004   0.5424

          k = 0.2500 0.2438 0.3611 ( 24940 PWs)   bands (ev):

   -24.1108 -24.1080  -9.5616  -9.5259  -9.5223  -9.4123  -9.3777  -9.3303
    -5.3733  -4.9262  -4.8051  -4.6936  -1.3693  -1.1238  -1.0373  -0.4886
    -0.3210  -0.1518  -0.0462   0.1672   0.2661   0.3785   0.5235   0.6058

          k = 0.2500 0.2438-0.7221 ( 24948 PWs)   bands (ev):

   -24.1036 -24.1036  -9.7506  -9.7291  -9.4052  -9.3701  -9.3600  -9.3538
    -5.1693  -5.0055  -4.6864  -4.5186  -1.6317  -1.5572  -0.8202  -0.7305
    -0.1858  -0.1851   0.1407   0.1968   0.3233   0.3569   0.4876   0.5250

          k = 0.2500-0.4875 0.0000 ( 24946 PWs)   bands (ev):

   -24.1152 -24.1152  -9.5826  -9.5826  -9.3648  -9.3648  -9.2669  -9.2669
    -5.4009  -5.4009  -4.7603  -4.7603  -1.0618  -1.0618  -0.5298  -0.5298
    -0.3205  -0.3205   0.1507   0.1507   0.3741   0.3741   0.4045   0.4045

          k = 0.2500-0.4875 0.3611 ( 24950 PWs)   bands (ev):

   -24.1094 -24.1094  -9.5574  -9.5574  -9.4672  -9.4672  -9.3426  -9.3426
    -5.1511  -5.1511  -4.7639  -4.7639  -1.2760  -1.2760  -0.7142  -0.7142
    -0.1809  -0.1809   0.1371   0.1371   0.2761   0.2761   0.4967   0.4967

          k = 0.2500-0.4875-0.7221 ( 24964 PWs)   bands (ev):

   -24.1036 -24.1036  -9.7366  -9.7366  -9.3894  -9.3894  -9.3589  -9.3589
    -5.1831  -5.1831  -4.4985  -4.4985  -1.5242  -1.5242  -0.8401  -0.8401
    -0.0760  -0.0760   0.0478   0.0478   0.3428   0.3428   0.5126   0.5126

          k =-0.5000 0.0000 0.0000 ( 24896 PWs)   bands (ev):

   -24.1152 -24.1152  -9.4954  -9.4954  -9.4584  -9.4584  -9.2672  -9.2672
    -5.4820  -5.4820  -4.6101  -4.6101  -1.1999  -1.1999  -0.4129  -0.4129
    -0.0549  -0.0549  -0.0287  -0.0287   0.0650   0.0650   0.4823   0.4823

          k =-0.5000 0.0000 0.3611 ( 24980 PWs)   bands (ev):

   -24.1094 -24.1094  -9.5702  -9.5702  -9.4329  -9.4329  -9.3674  -9.3674
    -5.1213  -5.1213  -4.7627  -4.7627  -1.3287  -1.3287  -0.7711  -0.7711
    -0.1816  -0.1816   0.0067   0.0067   0.3768   0.3768   0.5888   0.5888

          k =-0.5000 0.0000-0.7221 ( 24964 PWs)   bands (ev):

   -24.1036 -24.1036  -9.7595  -9.7595  -9.3772  -9.3772  -9.3486  -9.3486
    -5.0014  -5.0014  -4.6660  -4.6660  -1.8639  -1.8639  -0.4790  -0.4790
    -0.1498  -0.1498   0.0219   0.0219   0.4779   0.4779   0.5067   0.5067

          k =-0.5000 0.2438 0.0000 ( 24948 PWs)   bands (ev):

   -24.1152 -24.1152  -9.5813  -9.5813  -9.3698  -9.3698  -9.2669  -9.2669
    -5.4422  -5.4422  -4.6808  -4.6808  -1.0924  -1.0924  -0.4191  -0.4191
    -0.2550  -0.2550  -0.0669  -0.0669   0.2864   0.2864   0.4599   0.4599

          k =-0.5000 0.2438 0.3611 ( 24962 PWs)   bands (ev):

   -24.1094 -24.1094  -9.5593  -9.5593  -9.4714  -9.4714  -9.3415  -9.3415
    -5.0762  -5.0762  -4.8146  -4.8146  -1.3323  -1.3323  -0.7467  -0.7467
    -0.1463  -0.1463   0.0543   0.0543   0.3695   0.3695   0.5207   0.5207

          k =-0.5000 0.2438-0.7221 ( 24948 PWs)   bands (ev):

   -24.1036 -24.1036  -9.7410  -9.7410  -9.3919  -9.3919  -9.3582  -9.3582
    -5.0277  -5.0277  -4.6328  -4.6328  -1.7668  -1.7668  -0.6794  -0.6794
    -0.1054  -0.1054   0.0887   0.0887   0.4248   0.4248   0.5603   0.5603

          k =-0.5000-0.4875 0.0000 ( 24924 PWs)   bands (ev):

   -24.1152 -24.1152  -9.6226  -9.6226  -9.3258  -9.3258  -9.2666  -9.2666
    -5.3949  -5.3949  -4.7579  -4.7579  -0.9365  -0.9365  -0.5719  -0.5719
    -0.3527  -0.3527   0.1250   0.1250   0.3002   0.3002   0.4059   0.4059

          k =-0.5000-0.4875 0.3611 ( 24904 PWs)   bands (ev):

   -24.1094 -24.1094  -9.5385  -9.5385  -9.5093  -9.5093  -9.3259  -9.3259
    -4.9984  -4.9984  -4.8989  -4.8989  -1.3179  -1.3179  -0.7895  -0.7895
     0.0025   0.0025   0.1442   0.1442   0.2859   0.2859   0.4210   0.4210

          k =-0.5000-0.4875-0.7221 ( 24984 PWs)   bands (ev):

   -24.1036 -24.1036  -9.7199  -9.7199  -9.4124  -9.4124  -9.3644  -9.3644
    -5.0508  -5.0508  -4.6027  -4.6027  -1.6163  -1.6163  -0.9622  -0.9622
     0.1117   0.1117   0.1600   0.1600   0.3044   0.3044   0.5274   0.5274

     highest occupied level (ev):     0.6824

!    total energy              =    -156.47142453 Ry
     estimated scf accuracy    <          6.9E-11 Ry

     The total energy is the sum of the following terms:
     one-electron contribution =     -23.33527652 Ry
     hartree contribution      =      25.70270234 Ry
     xc contribution           =     -48.97044846 Ry
     ewald contribution        =    -109.86840190 Ry

     convergence has been achieved in  11 iterations

     Forces acting on atoms (cartesian axes, Ry/au):

     atom    1 type  2   force =     0.00000000    0.00000000    0.00001137
     atom    2 type  2   force =     0.00000000    0.00000000   -0.00001137
     atom    3 type  1   force =     0.00020869    0.00104085   -0.00001393
     atom    4 type  1   force =    -0.00020869   -0.00104085   -0.00001393
     atom    5 type  1   force =     0.00020869   -0.00104085    0.00001393
     atom    6 type  1   force =    -0.00020869    0.00104085    0.00001393
     atom    7 type  3   force =     0.00903316   -0.00229365   -0.00001913
     atom    8 type  3   force =    -0.00903316    0.00229365   -0.00001913
     atom    9 type  3   force =     0.00903316    0.00229365    0.00001913
     atom   10 type  3   force =    -0.00903316   -0.00229365    0.00001913
     atom   11 type  3   force =    -0.00597186   -0.00721734    0.00000711
     atom   12 type  3   force =     0.00597186    0.00721734    0.00000711
     atom   13 type  3   force =    -0.00597186    0.00721734   -0.00000711
     atom   14 type  3   force =     0.00597186   -0.00721734   -0.00000711
     atom   15 type  3   force =    -0.00109806    0.00530530    0.00806067
     atom   16 type  3   force =     0.00109806   -0.00530530    0.00806067
     atom   17 type  3   force =    -0.00109806   -0.00530530   -0.00806067
     atom   18 type  3   force =     0.00109806    0.00530530   -0.00806067
     atom   19 type  3   force =     0.00115159   -0.00532511   -0.00806771
     atom   20 type  3   force =    -0.00115159    0.00532511   -0.00806771
     atom   21 type  3   force =     0.00115159    0.00532511    0.00806771
     atom   22 type  3   force =    -0.00115159   -0.00532511    0.00806771

     Total force =     0.038201     Total SCF correction =     0.000005


     Computing stress (Cartesian axis) and pressure

          total   stress  (Ry/bohr**3)                   (kbar)     P=      -19.80
  -0.00012529   0.00000000   0.00000000          -18.43        0.00        0.00
   0.00000000  -0.00012783   0.00000000            0.00      -18.81        0.00
   0.00000000   0.00000000  -0.00015069            0.00        0.00      -22.17

     Volume is kept fixed: isostatic pressure set to zero

     BFGS Geometry Optimization
     Energy error            =      0.0E+00 Ry
     Gradient error          =      9.0E-03 Ry/Bohr
     Cell gradient error     =      2.4E+00 kbar

     number of scf cycles    =   1
     number of bfgs steps    =   0

     enthalpy           new  =    -156.4714245345 Ry

     new trust radius        =       0.0097350319 bohr
ibrav =      8
 celldm(1) =     12.76771463
 celldm(2) =      1.02550579
 celldm(3) =      0.69195470
Input lattice vectors:
     1.00023283     0.00000000     0.00000000
     0.00000000     1.02574456     0.00000000
     0.00000000     0.00000000     0.69211581
New lattice vectors in INITIAL alat:
     1.00023283     0.00000000     0.00000000
     0.00000000     1.02574456     0.00000000
     0.00000000     0.00000000     0.69211581
New lattice vectors in NEW alat (for information only):
     1.00000000     0.00000000     0.00000000
     0.00000000     1.02550579     0.00000000
     0.00000000     0.00000000     0.69195470
Discrepancy in bohr =     0.000000    0.000000    0.000000
     new conv_thr            =            1.0E-10 Ry

     new unit-cell volume =   1476.91425 a.u.^3 (   218.85611 Ang^3 )
     density =      2.53437 g/cm^3

CELL_PARAMETERS (alat= 12.76474260)
   1.000232831   0.000000000   0.000000000
   0.000000000   1.025744556   0.000000000
   0.000000000   0.000000000   0.692115808

ATOMIC_POSITIONS (crystal)
Ba               0.5000000000        0.5000000000        0.5001004518
Ba               0.0000000000        0.0000000000        0.9998995482
B                0.6102733654        0.2392818883        0.0000640808
B                0.3897266346        0.7607181117        0.0000640808
B                0.1102733654        0.2607181117        0.4999359192
B                0.8897266346        0.7392818883        0.4999359192
H                0.4348049175        0.2919805230        0.0002287688
H                0.5651950825        0.7080194770        0.0002287688
H                0.9348049175        0.2080194770        0.4997712312
H                0.0651950825        0.7919805230        0.4997712312
H                0.7215924280        0.3830036944       -0.0000075675
H                0.2784075720        0.6169963056       -0.0000075675
H                0.2215924280        0.1169963056        0.5000075675
H                0.7784075720        0.8830036944        0.5000075675
H                0.6391639016        0.1424996538        0.7814104363
H                0.3608360984        0.8575003462        0.7814104363
H                0.1391639016        0.3575003462        0.7185895637
H                0.8608360984        0.6424996538        0.7185895637
H                0.3606230472        0.8575491431        0.2186120292
H                0.6393769528        0.1424508569        0.2186120292
H                0.8606230472        0.6424508569        0.2813879708
H                0.1393769528        0.3575491431        0.2813879708



     Writing config-only to output data dir ./pwscf.save/ :
     XML data file
     NEW-OLD atomic charge density approx. for the potential

     total cpu time spent up to now is      256.3 secs

     Self-consistent Calculation

     iteration #  1     ecut=   100.00 Ry     beta= 0.70
     Davidson diagonalization with overlap
     ethr =  1.00E-06,  avg # of iterations =  3.4

     total cpu time spent up to now is      275.3 secs

     total energy              =    -156.47252759 Ry
     estimated scf accuracy    <       0.00032742 Ry

     iteration #  2     ecut=   100.00 Ry     beta= 0.70
     Davidson diagonalization with overlap
     ethr =  6.82E-07,  avg # of iterations =  2.0

     total cpu time spent up to now is      290.3 secs

     total energy              =    -156.47261504 Ry
     estimated scf accuracy    <       0.00005958 Ry

     iteration #  3     ecut=   100.00 Ry     beta= 0.70
     Davidson diagonalization with overlap
     ethr =  1.24E-07,  avg # of iterations =  2.0

     total cpu time spent up to now is      305.3 secs

     total energy              =    -156.47262357 Ry
     estimated scf accuracy    <       0.00000058 Ry

     iteration #  4     ecut=   100.00 Ry     beta= 0.70
     Davidson diagonalization with overlap
     ethr =  1.22E-09,  avg # of iterations =  3.4

     total cpu time spent up to now is      323.8 secs

     total energy              =    -156.47262388 Ry
     estimated scf accuracy    <       0.00000046 Ry

     iteration #  5     ecut=   100.00 Ry     beta= 0.70
     Davidson diagonalization with overlap
     ethr =  9.54E-10,  avg # of iterations =  2.0

     total cpu time spent up to now is      338.9 secs

     total energy              =    -156.47262394 Ry
     estimated scf accuracy    <       0.00000001 Ry

     iteration #  6     ecut=   100.00 Ry     beta= 0.70
     Davidson diagonalization with overlap
     ethr =  2.62E-11,  avg # of iterations =  5.3

     total cpu time spent up to now is      358.5 secs

     total energy              =    -156.47262395 Ry
     estimated scf accuracy    <          4.3E-09 Ry

     iteration #  7     ecut=   100.00 Ry     beta= 0.70
     Davidson diagonalization with overlap
     ethr =  9.06E-12,  avg # of iterations =  3.1

     total cpu time spent up to now is      374.1 secs

     End of self-consistent calculation

          k = 0.0000 0.0000 0.0000 ( 24905 PWs)   bands (ev):

   -24.1279 -24.1201  -9.6255  -9.5465  -9.3707  -9.3360  -9.3041  -9.2470
    -6.0975  -5.1695  -4.5502  -4.3937  -1.8025  -0.9046  -0.8704  -0.5031
    -0.1336  -0.1197  -0.0892   0.0469   0.2049   0.5994   0.6219   0.6616

          k = 0.0000 0.0000 0.3612 ( 24930 PWs)   bands (ev):

   -24.1210 -24.1155  -9.5384  -9.5353  -9.5116  -9.4854  -9.3547  -9.3357
    -5.6246  -4.9309  -4.7053  -4.6034  -1.4379  -1.1873  -0.7280  -0.6773
    -0.5414  -0.4308  -0.0735   0.2052   0.4097   0.4350   0.5081   0.6557

          k = 0.0000 0.0000-0.7224 ( 24964 PWs)   bands (ev):

   -24.1124 -24.1124  -9.7368  -9.7366  -9.4066  -9.4065  -9.3647  -9.3647
    -4.9386  -4.9381  -4.8404  -4.8399  -1.1984  -1.1980  -1.1821  -1.1805
    -0.1428  -0.1423  -0.0964  -0.0945   0.4698   0.4699   0.4862   0.4868

          k = 0.0000 0.2437 0.0000 ( 24918 PWs)   bands (ev):

   -24.1268 -24.1213  -9.5984  -9.5189  -9.4178  -9.3678  -9.2956  -9.2551
    -5.9078  -5.0853  -4.8218  -4.5159  -1.4544  -1.0477  -0.9840  -0.2287
    -0.2230  -0.1969   0.0912   0.2034   0.2868   0.2923   0.5150   0.5939

          k = 0.0000 0.2437 0.3612 ( 24956 PWs)   bands (ev):

   -24.1202 -24.1163  -9.5777  -9.5403  -9.4706  -9.4603  -9.3623  -9.3553
    -5.5203  -5.0006  -4.7494  -4.6443  -1.2510  -1.2112  -1.0044  -0.4567
    -0.4135  -0.2227  -0.2102   0.2553   0.3390   0.3771   0.4832   0.5403

          k = 0.0000 0.2437-0.7224 ( 24964 PWs)   bands (ev):

   -24.1124 -24.1124  -9.7494  -9.7493  -9.3901  -9.3900  -9.3639  -9.3639
    -5.1901  -5.1901  -4.5796  -4.5796  -1.3094  -1.3088  -1.0175  -1.0168
    -0.0769  -0.0767  -0.0508  -0.0492   0.3062   0.3062   0.4810   0.4813

          k = 0.0000-0.4875 0.0000 ( 24922 PWs)   bands (ev):

   -24.1240 -24.1240  -9.5232  -9.5232  -9.4400  -9.4400  -9.2752  -9.2752
    -5.4289  -5.4289  -4.7878  -4.7878  -1.1650  -1.1650  -0.5294  -0.5294
    -0.2961  -0.2961   0.1994   0.1994   0.3254   0.3254   0.4536   0.4536

          k = 0.0000-0.4875 0.3612 ( 24956 PWs)   bands (ev):

   -24.1182 -24.1182  -9.5760  -9.5760  -9.4220  -9.4220  -9.3880  -9.3880
    -5.2595  -5.2595  -4.7218  -4.7218  -1.1927  -1.1927  -0.7832  -0.7832
    -0.1811  -0.1811   0.0985   0.0985   0.2528   0.2528   0.4614   0.4614

          k = 0.0000-0.4875-0.7224 ( 24944 PWs)   bands (ev):

   -24.1124 -24.1124  -9.7609  -9.7609  -9.3767  -9.3767  -9.3610  -9.3610
    -5.3102  -5.3102  -4.4506  -4.4506  -1.3961  -1.3961  -0.7868  -0.7868
    -0.1466  -0.1466   0.0278   0.0278   0.1178   0.1178   0.5174   0.5174

          k = 0.2499 0.0000 0.0000 ( 24873 PWs)   bands (ev):

   -24.1268 -24.1212  -9.5901  -9.5289  -9.4096  -9.3819  -9.2956  -9.2551
    -5.9161  -5.2096  -4.5842  -4.5399  -1.6159  -0.7779  -0.7746  -0.6280
    -0.1020  -0.0655   0.0031   0.0684   0.1645   0.1872   0.5677   0.6075

          k = 0.2499 0.0000 0.3612 ( 24937 PWs)   bands (ev):

   -24.1202 -24.1163  -9.5689  -9.5512  -9.4971  -9.4382  -9.3771  -9.3440
    -5.4811  -4.9231  -4.7337  -4.7282  -1.4070  -1.1652  -1.0145  -0.5095
    -0.4818  -0.2272   0.0021   0.1365   0.2640   0.3970   0.5841   0.6082

          k = 0.2499 0.0000-0.7224 ( 24918 PWs)   bands (ev):

   -24.1124 -24.1124  -9.7535  -9.7534  -9.3946  -9.3945  -9.3615  -9.3614
    -4.9959  -4.9955  -4.7546  -4.7543  -1.6535  -1.6531  -0.7602  -0.7598
    -0.1559  -0.1555   0.1533   0.1548   0.2820   0.2821   0.5220   0.5224

          k = 0.2499 0.2437 0.0000 ( 24929 PWs)   bands (ev):

   -24.1259 -24.1220  -9.6148  -9.5067  -9.4560  -9.3420  -9.2894  -9.2608
    -5.7772  -5.1704  -4.8099  -4.5800  -1.3362  -1.0138  -0.7907  -0.3387
    -0.2668  -0.2228   0.0725   0.2129   0.2334   0.3055   0.3819   0.5244

          k = 0.2499 0.2437 0.3612 ( 24940 PWs)   bands (ev):

   -24.1196 -24.1168  -9.5704  -9.5346  -9.5307  -9.4211  -9.3856  -9.3385
    -5.3934  -4.9525  -4.8306  -4.7214  -1.3685  -1.1248  -1.0425  -0.4993
    -0.3329  -0.1646  -0.0612   0.1523   0.2491   0.3608   0.5053   0.5878

          k = 0.2499 0.2437-0.7224 ( 24948 PWs)   bands (ev):

   -24.1124 -24.1124  -9.7601  -9.7386  -9.4131  -9.3780  -9.3681  -9.3620
    -5.1959  -5.0318  -4.7123  -4.5441  -1.6295  -1.5548  -0.8245  -0.7337
    -0.2001  -0.1996   0.1265   0.1814   0.3059   0.3393   0.4700   0.5053

          k = 0.2499-0.4875 0.0000 ( 24946 PWs)   bands (ev):

   -24.1240 -24.1240  -9.5912  -9.5912  -9.3731  -9.3731  -9.2748  -9.2748
    -5.4228  -5.4228  -4.7859  -4.7859  -1.0683  -1.0683  -0.5406  -0.5406
    -0.3311  -0.3311   0.1355   0.1355   0.3599   0.3599   0.3866   0.3866

          k = 0.2499-0.4875 0.3612 ( 24950 PWs)   bands (ev):

   -24.1182 -24.1182  -9.5660  -9.5660  -9.4757  -9.4757  -9.3508  -9.3508
    -5.1740  -5.1740  -4.7903  -4.7903  -1.2765  -1.2765  -0.7226  -0.7226
    -0.1934  -0.1934   0.1218   0.1218   0.2593   0.2593   0.4790   0.4790

          k = 0.2499-0.4875-0.7224 ( 24964 PWs)   bands (ev):

   -24.1124 -24.1124  -9.7461  -9.7461  -9.3973  -9.3973  -9.3671  -9.3671
    -5.2094  -5.2094  -4.5242  -4.5242  -1.5220  -1.5220  -0.8443  -0.8443
    -0.0913  -0.0913   0.0341   0.0341   0.3251   0.3251   0.4939   0.4939

          k =-0.4999 0.0000 0.0000 ( 24896 PWs)   bands (ev):

   -24.1240 -24.1240  -9.5044  -9.5044  -9.4663  -9.4663  -9.2752  -9.2752
    -5.5032  -5.5032  -4.6377  -4.6377  -1.2026  -1.2026  -0.4234  -0.4234
    -0.0648  -0.0648  -0.0452  -0.0452   0.0504   0.0504   0.4628   0.4628

          k =-0.4999 0.0000 0.3612 ( 24980 PWs)   bands (ev):

   -24.1182 -24.1182  -9.5790  -9.5790  -9.4415  -9.4415  -9.3755  -9.3755
    -5.1432  -5.1432  -4.7909  -4.7909  -1.3277  -1.3277  -0.7785  -0.7785
    -0.1957  -0.1957  -0.0083  -0.0083   0.3604   0.3604   0.5698   0.5698

          k =-0.4999 0.0000-0.7224 ( 24964 PWs)   bands (ev):

   -24.1124 -24.1124  -9.7690  -9.7690  -9.3851  -9.3851  -9.3568  -9.3568
    -5.0298  -5.0298  -4.6901  -4.6901  -1.8605  -1.8605  -0.4837  -0.4837
    -0.1645  -0.1645   0.0065   0.0065   0.4615   0.4615   0.4873   0.4873

          k =-0.4999 0.2437 0.0000 ( 24948 PWs)   bands (ev):

   -24.1240 -24.1240  -9.5899  -9.5899  -9.3782  -9.3782  -9.2748  -9.2748
    -5.4643  -5.4643  -4.7066  -4.7066  -1.0982  -1.0982  -0.4294  -0.4294
    -0.2655  -0.2655  -0.0817  -0.0817   0.2723   0.2723   0.4410   0.4410

          k =-0.4999 0.2437 0.3612 ( 24962 PWs)   bands (ev):

   -24.1182 -24.1182  -9.5679  -9.5679  -9.4799  -9.4799  -9.3497  -9.3497
    -5.0988  -5.0988  -4.8417  -4.8417  -1.3319  -1.3319  -0.7549  -0.7549
    -0.1600  -0.1600   0.0393   0.0393   0.3526   0.3526   0.5028   0.5028

          k =-0.4999 0.2437-0.7224 ( 24948 PWs)   bands (ev):

   -24.1124 -24.1124  -9.7505  -9.7505  -9.3998  -9.3998  -9.3663  -9.3663
    -5.0552  -5.0552  -4.6578  -4.6578  -1.7634  -1.7634  -0.6845  -0.6845
    -0.1194  -0.1194   0.0727   0.0727   0.4076   0.4076   0.5416   0.5416

          k =-0.4999-0.4875 0.0000 ( 24924 PWs)   bands (ev):

   -24.1240 -24.1240  -9.6312  -9.6312  -9.3341  -9.3341  -9.2745  -9.2745
    -5.4183  -5.4183  -4.7816  -4.7816  -0.9474  -0.9474  -0.5792  -0.5792
    -0.3629  -0.3629   0.1096   0.1096   0.2837   0.2837   0.3912   0.3912

          k =-0.4999-0.4875 0.3612 ( 24904 PWs)   bands (ev):

   -24.1182 -24.1182  -9.5468  -9.5468  -9.5182  -9.5182  -9.3341  -9.3341
    -5.0224  -5.0224  -4.9243  -4.9243  -1.3179  -1.3179  -0.7983  -0.7983
    -0.0108  -0.0108   0.1269   0.1269   0.2695   0.2695   0.4054   0.4054

          k =-0.4999-0.4875-0.7224 ( 24984 PWs)   bands (ev):

   -24.1124 -24.1124  -9.7295  -9.7295  -9.4203  -9.4203  -9.3725  -9.3725
    -5.0777  -5.0777  -4.6283  -4.6283  -1.6128  -1.6128  -0.9669  -0.9669
     0.0959   0.0959   0.1426   0.1426   0.2886   0.2886   0.5098   0.5098

     highest occupied level (ev):     0.6616

!    total energy              =    -156.47262395 Ry
     estimated scf accuracy    <          3.6E-11 Ry

     The total energy is the sum of the following terms:
     one-electron contribution =     -23.61867110 Ry
     hartree contribution      =      25.84402012 Ry
     xc contribution           =     -49.00572559 Ry
     ewald contribution        =    -109.69224739 Ry

     convergence has been achieved in   7 iterations

     Forces acting on atoms (cartesian axes, Ry/au):

     atom    1 type  2   force =     0.00000000    0.00000000    0.00000938
     atom    2 type  2   force =     0.00000000    0.00000000   -0.00000938
     atom    3 type  1   force =     0.00027590    0.00114963   -0.00001094
     atom    4 type  1   force =    -0.00027590   -0.00114963   -0.00001094
     atom    5 type  1   force =     0.00027590   -0.00114963    0.00001094
     atom    6 type  1   force =    -0.00027590    0.00114963    0.00001094
     atom    7 type  3   force =     0.00579351   -0.00132914   -0.00001773
     atom    8 type  3   force =    -0.00579351    0.00132914   -0.00001773
     atom    9 type  3   force =     0.00579351    0.00132914    0.00001773
     atom   10 type  3   force =    -0.00579351   -0.00132914    0.00001773
     atom   11 type  3   force =    -0.00383476   -0.00435413    0.00000535
     atom   12 type  3   force =     0.00383476    0.00435413    0.00000535
     atom   13 type  3   force =    -0.00383476    0.00435413   -0.00000535
     atom   14 type  3   force =     0.00383476   -0.00435413   -0.00000535
     atom   15 type  3   force =    -0.00053882    0.00337363    0.00493652
     atom   16 type  3   force =     0.00053882   -0.00337363    0.00493652
     atom   17 type  3   force =    -0.00053882   -0.00337363   -0.00493652
     atom   18 type  3   force =     0.00053882    0.00337363   -0.00493652
     atom   19 type  3   force =     0.00058591   -0.00339096   -0.00494498
     atom   20 type  3   force =    -0.00058591    0.00339096   -0.00494498
     atom   21 type  3   force =     0.00058591    0.00339096    0.00494498
     atom   22 type  3   force =    -0.00058591   -0.00339096    0.00494498

     Total force =     0.023894     Total SCF correction =     0.000003


     Computing stress (Cartesian axis) and pressure

          total   stress  (Ry/bohr**3)                   (kbar)     P=      -15.57
  -0.00009875   0.00000000   0.00000000          -14.53        0.00        0.00
   0.00000000  -0.00010017   0.00000000            0.00      -14.74        0.00
   0.00000000   0.00000000  -0.00011851            0.00        0.00      -17.43

     Volume is kept fixed: isostatic pressure set to zero
     Energy error            =      1.2E-03 Ry
     Gradient error          =      5.8E-03 Ry/Bohr
     Cell gradient error     =      1.9E+00 kbar

     number of scf cycles    =   2
     number of bfgs steps    =   1

     enthalpy           old  =    -156.4714245345 Ry
     enthalpy           new  =    -156.4726239528 Ry

     CASE: enthalpy          _new < enthalpy          _old

     new trust radius        =       0.0145993039 bohr
ibrav =      8
 celldm(1) =     12.77317328
 celldm(2) =      1.02541780
 celldm(3) =      0.69112725
Input lattice vectors:
     1.00066047     0.00000000     0.00000000
     0.00000000     1.02609505     0.00000000
     0.00000000     0.00000000     0.69158372
New lattice vectors in INITIAL alat:
     1.00066047     0.00000000     0.00000000
     0.00000000     1.02609505     0.00000000
     0.00000000     0.00000000     0.69158372
New lattice vectors in NEW alat (for information only):
     1.00000000     0.00000000     0.00000000
     0.00000000     1.02541780     0.00000000
     0.00000000     0.00000000     0.69112725
Discrepancy in bohr =     0.000000    0.000000    0.000000
     new conv_thr            =            1.0E-10 Ry

     new unit-cell volume =   1476.91425 a.u.^3 (   218.85611 Ang^3 )
     density =      2.53437 g/cm^3

CELL_PARAMETERS (alat= 12.76474260)
   1.000660466   0.000000000   0.000000000
   0.000000000   1.026095050   0.000000000
   0.000000000   0.000000000   0.691583719

ATOMIC_POSITIONS (crystal)
Ba               0.5000000000        0.5000000000        0.5001030211
Ba               0.0000000000        0.0000000000        0.9998969789
B                0.6103256152        0.2394942766        0.0000610855
B                0.3896743848        0.7605057234        0.0000610855
B                0.1103256152        0.2605057234        0.4999389145
B                0.8896743848        0.7394942766        0.4999389145
H                0.4359052872        0.2917342385        0.0002239156
H                0.5640947128        0.7082657615        0.0002239156
H                0.9359052872        0.2082657615        0.4997760844
H                0.0640947128        0.7917342385        0.4997760844
H                0.7208640912        0.3821970905       -0.0000061008
H                0.2791359088        0.6178029095       -0.0000061008
H                0.2208640912        0.1178029095        0.5000061008
H                0.7791359088        0.8821970905        0.5000061008
H                0.6390613853        0.1431244262        0.7827640845
H                0.3609386147        0.8568755738        0.7827640845
H                0.1390613853        0.3568755738        0.7172359155
H                0.8609386147        0.6431244262        0.7172359155
H                0.3607344948        0.8569211651        0.2172560682
H                0.6392655052        0.1430788349        0.2172560682
H                0.8607344948        0.6430788349        0.2827439318
H                0.1392655052        0.3569211651        0.2827439318



     Writing config-only to output data dir ./pwscf.save/ :
     XML data file
     NEW-OLD atomic charge density approx. for the potential

     total cpu time spent up to now is      405.9 secs

     Self-consistent Calculation

     iteration #  1     ecut=   100.00 Ry     beta= 0.70
     Davidson diagonalization with overlap
     ethr =  1.00E-06,  avg # of iterations =  4.0

     total cpu time spent up to now is      427.7 secs

     total energy              =    -156.47311341 Ry
     estimated scf accuracy    <       0.00083940 Ry

     iteration #  2     ecut=   100.00 Ry     beta= 0.70
     Davidson diagonalization with overlap
     ethr =  1.75E-06,  avg # of iterations =  2.0

     total cpu time spent up to now is      442.8 secs

     total energy              =    -156.47336023 Ry
     estimated scf accuracy    <       0.00018802 Ry

     iteration #  3     ecut=   100.00 Ry     beta= 0.70
     Davidson diagonalization with overlap
     ethr =  3.92E-07,  avg # of iterations =  2.0

     total cpu time spent up to now is      457.8 secs

     total energy              =    -156.47338465 Ry
     estimated scf accuracy    <       0.00000288 Ry

     iteration #  4     ecut=   100.00 Ry     beta= 0.70
     Davidson diagonalization with overlap
     ethr =  5.99E-09,  avg # of iterations =  3.0

     total cpu time spent up to now is      475.6 secs

     total energy              =    -156.47338609 Ry
     estimated scf accuracy    <       0.00000197 Ry

     iteration #  5     ecut=   100.00 Ry     beta= 0.70
     Davidson diagonalization with overlap
     ethr =  4.10E-09,  avg # of iterations =  2.0

     total cpu time spent up to now is      490.7 secs

     total energy              =    -156.47338628 Ry
     estimated scf accuracy    <       0.00000009 Ry

     iteration #  6     ecut=   100.00 Ry     beta= 0.70
     Davidson diagonalization with overlap
     ethr =  1.97E-10,  avg # of iterations =  3.2

     total cpu time spent up to now is      507.3 secs

     total energy              =    -156.47338632 Ry
     estimated scf accuracy    <       0.00000003 Ry

     iteration #  7     ecut=   100.00 Ry     beta= 0.70
     Davidson diagonalization with overlap
     ethr =  5.49E-11,  avg # of iterations =  2.4

     total cpu time spent up to now is      522.5 secs

     total energy              =    -156.47338633 Ry
     estimated scf accuracy    <          7.5E-10 Ry

     iteration #  8     ecut=   100.00 Ry     beta= 0.70
     Davidson diagonalization with overlap
     ethr =  1.56E-12,  avg # of iterations =  6.1

     total cpu time spent up to now is      547.5 secs

     End of self-consistent calculation

          k = 0.0000 0.0000 0.0000 ( 24905 PWs)   bands (ev):

   -24.1408 -24.1331  -9.6389  -9.5591  -9.3831  -9.3481  -9.3157  -9.2589
    -6.1240  -5.2119  -4.5907  -4.4369  -1.8033  -0.9223  -0.8792  -0.5292
    -0.1524  -0.1323  -0.1010   0.0285   0.1898   0.5698   0.5903   0.6278

          k = 0.0000 0.0000 0.3615 ( 24930 PWs)   bands (ev):

   -24.1338 -24.1283  -9.5511  -9.5488  -9.5254  -9.4976  -9.3668  -9.3477
    -5.6519  -4.9711  -4.7477  -4.6480  -1.4362  -1.1910  -0.7326  -0.6957
    -0.5557  -0.4454  -0.0941   0.1803   0.3806   0.4061   0.4830   0.6249

          k = 0.0000 0.0000-0.7230 ( 24964 PWs)   bands (ev):

   -24.1252 -24.1252  -9.7518  -9.7516  -9.4182  -9.4182  -9.3767  -9.3767
    -4.9724  -4.9720  -4.8854  -4.8849  -1.1980  -1.1975  -1.1827  -1.1812
    -0.1672  -0.1667  -0.1173  -0.1154   0.4420   0.4420   0.4576   0.4580

          k = 0.0000 0.2436 0.0000 ( 24918 PWs)   bands (ev):

   -24.1397 -24.1342  -9.6118  -9.5317  -9.4301  -9.3798  -9.3072  -9.2670
    -5.9355  -5.1280  -4.8576  -4.5588  -1.4601  -1.0564  -0.9979  -0.2450
    -0.2365  -0.2241   0.0713   0.1860   0.2586   0.2751   0.4858   0.5628

          k = 0.0000 0.2436 0.3615 ( 24956 PWs)   bands (ev):

   -24.1330 -24.1291  -9.5908  -9.5537  -9.4838  -9.4727  -9.3746  -9.3672
    -5.5494  -5.0398  -4.7900  -4.6878  -1.2519  -1.2145  -1.0120  -0.4683
    -0.4296  -0.2462  -0.2275   0.2302   0.3116   0.3489   0.4567   0.5114

          k = 0.0000 0.2436-0.7230 ( 24964 PWs)   bands (ev):

   -24.1252 -24.1252  -9.7642  -9.7641  -9.4017  -9.4016  -9.3760  -9.3760
    -5.2290  -5.2290  -4.6192  -4.6192  -1.3103  -1.3096  -1.0181  -1.0174
    -0.1009  -0.1008  -0.0730  -0.0713   0.2808   0.2809   0.4513   0.4515

          k = 0.0000-0.4873 0.0000 ( 24922 PWs)   bands (ev):

   -24.1369 -24.1369  -9.5366  -9.5366  -9.4519  -9.4519  -9.2870  -9.2870
    -5.4604  -5.4604  -4.8296  -4.8296  -1.1727  -1.1727  -0.5481  -0.5481
    -0.3103  -0.3103   0.1699   0.1699   0.3074   0.3074   0.4263   0.4263

          k = 0.0000-0.4873 0.3615 ( 24956 PWs)   bands (ev):

   -24.1311 -24.1311  -9.5893  -9.5893  -9.4351  -9.4351  -9.3997  -9.3997
    -5.2933  -5.2933  -4.7633  -4.7633  -1.1956  -1.1956  -0.7932  -0.7932
    -0.2008  -0.2008   0.0783   0.0783   0.2234   0.2234   0.4341   0.4341

          k = 0.0000-0.4873-0.7230 ( 24944 PWs)   bands (ev):

   -24.1252 -24.1252  -9.7757  -9.7757  -9.3882  -9.3882  -9.3732  -9.3732
    -5.3494  -5.3494  -4.4896  -4.4896  -1.3969  -1.3969  -0.7874  -0.7874
    -0.1716  -0.1716   0.0066   0.0066   0.0922   0.0922   0.4869   0.4869

          k = 0.2498 0.0000 0.0000 ( 24873 PWs)   bands (ev):

   -24.1397 -24.1342  -9.6035  -9.5415  -9.4221  -9.3939  -9.3072  -9.2671
    -5.9442  -5.2494  -4.6251  -4.5817  -1.6182  -0.7888  -0.7888  -0.6484
    -0.1150  -0.0834  -0.0125   0.0450   0.1472   0.1620   0.5364   0.5737

          k = 0.2498 0.0000 0.3615 ( 24937 PWs)   bands (ev):

   -24.1330 -24.1291  -9.5821  -9.5645  -9.5100  -9.4509  -9.3892  -9.3561
    -5.5101  -4.9621  -4.7762  -4.7712  -1.4042  -1.1723  -1.0162  -0.5248
    -0.5018  -0.2443  -0.0215   0.1120   0.2399   0.3712   0.5531   0.5799

          k = 0.2498 0.0000-0.7230 ( 24918 PWs)   bands (ev):

   -24.1252 -24.1252  -9.7684  -9.7683  -9.4062  -9.4061  -9.3736  -9.3735
    -5.0372  -5.0368  -4.7926  -4.7923  -1.6500  -1.6495  -0.7650  -0.7646
    -0.1798  -0.1794   0.1303   0.1318   0.2565   0.2566   0.4928   0.4932

          k = 0.2498 0.2436 0.0000 ( 24929 PWs)   bands (ev):

   -24.1388 -24.1350  -9.6279  -9.5199  -9.4679  -9.3543  -9.3011  -9.2727
    -5.8067  -5.2102  -4.8477  -4.6206  -1.3436  -1.0244  -0.8060  -0.3573
    -0.2806  -0.2372   0.0467   0.1953   0.2064   0.2870   0.3520   0.4953

          k = 0.2498 0.2436 0.3615 ( 24940 PWs)   bands (ev):

   -24.1324 -24.1297  -9.5838  -9.5479  -9.5432  -9.4342  -9.3974  -9.3505
    -5.4240  -4.9923  -4.8696  -4.7640  -1.3679  -1.1268  -1.0510  -0.5152
    -0.3513  -0.1832  -0.0837   0.1293   0.2227   0.3338   0.4775   0.5595

          k = 0.2498 0.2436-0.7230 ( 24948 PWs)   bands (ev):

   -24.1252 -24.1252  -9.7750  -9.7534  -9.4247  -9.3896  -9.3801  -9.3742
    -5.2363  -5.0717  -4.7515  -4.5827  -1.6264  -1.5514  -0.8303  -0.7381
    -0.2232  -0.2229   0.1056   0.1583   0.2772   0.3127   0.4438   0.4735

          k = 0.2498-0.4873 0.0000 ( 24946 PWs)   bands (ev):

   -24.1369 -24.1369  -9.6041  -9.6041  -9.3853  -9.3853  -9.2866  -9.2866
    -5.4567  -5.4567  -4.8247  -4.8247  -1.0792  -1.0792  -0.5591  -0.5591
    -0.3446  -0.3446   0.1108   0.1108   0.3410   0.3410   0.3579   0.3579

          k = 0.2498-0.4873 0.3615 ( 24950 PWs)   bands (ev):

   -24.1310 -24.1310  -9.5791  -9.5791  -9.4886  -9.4886  -9.3629  -9.3629
    -5.2089  -5.2089  -4.8307  -4.8307  -1.2778  -1.2778  -0.7357  -0.7357
    -0.2119  -0.2119   0.0986   0.0986   0.2325   0.2325   0.4519   0.4519

          k = 0.2498-0.4873-0.7230 ( 24964 PWs)   bands (ev):

   -24.1252 -24.1252  -9.7610  -9.7610  -9.4089  -9.4089  -9.3792  -9.3792
    -5.2494  -5.2494  -4.5633  -4.5633  -1.5192  -1.5192  -0.8498  -0.8498
    -0.1149  -0.1149   0.0124   0.0124   0.2982   0.2982   0.4644   0.4644

          k =-0.4997 0.0000 0.0000 ( 24896 PWs)   bands (ev):

   -24.1369 -24.1369  -9.5180  -9.5180  -9.4780  -9.4780  -9.2870  -9.2870
    -5.5359  -5.5359  -4.6794  -4.6794  -1.2087  -1.2087  -0.4397  -0.4397
    -0.0769  -0.0769  -0.0718  -0.0718   0.0307   0.0307   0.4307   0.4307

          k =-0.4997 0.0000 0.3615 ( 24980 PWs)   bands (ev):

   -24.1310 -24.1310  -9.5922  -9.5922  -9.4543  -9.4543  -9.3875  -9.3875
    -5.1766  -5.1766  -4.8337  -4.8337  -1.3266  -1.3266  -0.7903  -0.7903
    -0.2174  -0.2174  -0.0308  -0.0308   0.3363   0.3363   0.5395   0.5395

          k =-0.4997 0.0000-0.7230 ( 24964 PWs)   bands (ev):

   -24.1252 -24.1252  -9.7838  -9.7838  -9.3967  -9.3967  -9.3689  -9.3689
    -5.0734  -5.0734  -4.7263  -4.7263  -1.8553  -1.8553  -0.4902  -0.4902
    -0.1883  -0.1883  -0.0167  -0.0167   0.4371   0.4371   0.4561   0.4561

          k =-0.4997 0.2436 0.0000 ( 24948 PWs)   bands (ev):

   -24.1369 -24.1369  -9.6027  -9.6027  -9.3905  -9.3905  -9.2866  -9.2866
    -5.4986  -5.4986  -4.7456  -4.7456  -1.1085  -1.1085  -0.4464  -0.4464
    -0.2788  -0.2788  -0.1055  -0.1055   0.2535   0.2535   0.4103   0.4103

          k =-0.4997 0.2436 0.3615 ( 24962 PWs)   bands (ev):

   -24.1310 -24.1310  -9.5810  -9.5810  -9.4928  -9.4928  -9.3618  -9.3618
    -5.1333  -5.1333  -4.8830  -4.8830  -1.3317  -1.3317  -0.7675  -0.7675
    -0.1819  -0.1819   0.0173   0.0173   0.3273   0.3273   0.4747   0.4747

          k =-0.4997 0.2436-0.7230 ( 24948 PWs)   bands (ev):

   -24.1252 -24.1252  -9.7654  -9.7654  -9.4113  -9.4113  -9.3784  -9.3784
    -5.0974  -5.0974  -4.6954  -4.6954  -1.7584  -1.7584  -0.6917  -0.6917
    -0.1422  -0.1422   0.0491   0.0491   0.3802   0.3802   0.5132   0.5132

          k =-0.4997-0.4873 0.0000 ( 24924 PWs)   bands (ev):

   -24.1369 -24.1369  -9.6440  -9.6440  -9.3464  -9.3464  -9.2863  -9.2863
    -5.4547  -5.4547  -4.8175  -4.8175  -0.9646  -0.9646  -0.5925  -0.5925
    -0.3758  -0.3758   0.0835   0.0835   0.2579   0.2579   0.3715   0.3715

          k =-0.4997-0.4873 0.3615 ( 24904 PWs)   bands (ev):

   -24.1310 -24.1310  -9.5591  -9.5591  -9.5318  -9.5318  -9.3462  -9.3462
    -5.0592  -5.0592  -4.9628  -4.9628  -1.3185  -1.3185  -0.8116  -0.8116
    -0.0309  -0.0309   0.0998   0.0998   0.2432   0.2432   0.3824   0.3824

          k =-0.4997-0.4873-0.7230 ( 24984 PWs)   bands (ev):

   -24.1252 -24.1252  -9.7445  -9.7445  -9.4319  -9.4319  -9.3844  -9.3844
    -5.1187  -5.1187  -4.6670  -4.6670  -1.6080  -1.6080  -0.9732  -0.9732
     0.0725   0.0725   0.1154   0.1154   0.2619   0.2619   0.4837   0.4837

     highest occupied level (ev):     0.6278

!    total energy              =    -156.47338633 Ry
     estimated scf accuracy    <          3.3E-11 Ry

     The total energy is the sum of the following terms:
     one-electron contribution =     -24.06336285 Ry
     hartree contribution      =      26.06603250 Ry
     xc contribution           =     -49.05977449 Ry
     ewald contribution        =    -109.41628149 Ry

     convergence has been achieved in   8 iterations

     Forces acting on atoms (cartesian axes, Ry/au):

     atom    1 type  2   force =     0.00000000    0.00000000    0.00000552
     atom    2 type  2   force =     0.00000000    0.00000000   -0.00000552
     atom    3 type  1   force =     0.00029743    0.00071990   -0.00000866
     atom    4 type  1   force =    -0.00029743   -0.00071990   -0.00000866
     atom    5 type  1   force =     0.00029743   -0.00071990    0.00000866
     atom    6 type  1   force =    -0.00029743    0.00071990    0.00000866
     atom    7 type  3   force =     0.00072223    0.00019086   -0.00001595
     atom    8 type  3   force =    -0.00072223   -0.00019086   -0.00001595
     atom    9 type  3   force =     0.00072223   -0.00019086    0.00001595
     atom   10 type  3   force =    -0.00072223    0.00019086    0.00001595
     atom   11 type  3   force =    -0.00032637    0.00032951    0.00000256
     atom   12 type  3   force =     0.00032637   -0.00032951    0.00000256
     atom   13 type  3   force =    -0.00032637   -0.00032951   -0.00000256
     atom   14 type  3   force =     0.00032637    0.00032951   -0.00000256
     atom   15 type  3   force =     0.00030095    0.00052504    0.00020741
     atom   16 type  3   force =    -0.00030095   -0.00052504    0.00020741
     atom   17 type  3   force =     0.00030095   -0.00052504   -0.00020741
     atom   18 type  3   force =    -0.00030095    0.00052504   -0.00020741
     atom   19 type  3   force =    -0.00026503   -0.00053608   -0.00021471
     atom   20 type  3   force =     0.00026503    0.00053608   -0.00021471
     atom   21 type  3   force =    -0.00026503    0.00053608    0.00021471
     atom   22 type  3   force =     0.00026503   -0.00053608    0.00021471

     Total force =     0.002962     Total SCF correction =     0.000002


     Computing stress (Cartesian axis) and pressure

          total   stress  (Ry/bohr**3)                   (kbar)     P=       -9.00
  -0.00005687   0.00000000   0.00000000           -8.37        0.00        0.00
   0.00000000  -0.00005716   0.00000000            0.00       -8.41        0.00
   0.00000000   0.00000000  -0.00006947            0.00        0.00      -10.22

     Volume is kept fixed: isostatic pressure set to zero
     Energy error            =      7.6E-04 Ry
     Gradient error          =      7.2E-04 Ry/Bohr
     Cell gradient error     =      1.2E+00 kbar

     number of scf cycles    =   3
     number of bfgs steps    =   2

     enthalpy           old  =    -156.4726239528 Ry
     enthalpy           new  =    -156.4733863269 Ry

     CASE: enthalpy          _new < enthalpy          _old

     new trust radius        =       0.0020729302 bohr
ibrav =      8
 celldm(1) =     12.77497678
 celldm(2) =      1.02540456
 celldm(3) =      0.69084350
Input lattice vectors:
     1.00080175     0.00000000     0.00000000
     0.00000000     1.02622668     0.00000000
     0.00000000     0.00000000     0.69139739
New lattice vectors in INITIAL alat:
     1.00080175     0.00000000     0.00000000
     0.00000000     1.02622668     0.00000000
     0.00000000     0.00000000     0.69139739
New lattice vectors in NEW alat (for information only):
     1.00000000     0.00000000     0.00000000
     0.00000000     1.02540456     0.00000000
     0.00000000     0.00000000     0.69084350
Discrepancy in bohr =     0.000000    0.000000    0.000000
     new conv_thr            =            7.2E-11 Ry

     new unit-cell volume =   1476.91425 a.u.^3 (   218.85611 Ang^3 )
     density =      2.53437 g/cm^3

CELL_PARAMETERS (alat= 12.76474260)
   1.000801754   0.000000000   0.000000000
   0.000000000   1.026226682   0.000000000
   0.000000000   0.000000000   0.691397390

ATOMIC_POSITIONS (crystal)
Ba               0.5000000000        0.5000000000        0.5001038444
Ba               0.0000000000        0.0000000000        0.9998961556
B                0.6103538225        0.2395658639        0.0000598522
B                0.3896461775        0.7604341361        0.0000598522
B                0.1103538225        0.2604341361        0.4999401478
B                0.8896461775        0.7395658639        0.4999401478
H                0.4360304435        0.2917356953        0.0002216854
H                0.5639695565        0.7082643047        0.0002216854
H                0.9360304435        0.2082643047        0.4997783146
H                0.0639695565        0.7917356953        0.4997783146
H                0.7207941668        0.3821775073       -0.0000057031
H                0.2792058332        0.6178224927       -0.0000057031
H                0.2207941668        0.1178224927        0.5000057031
H                0.7792058332        0.8821775073        0.5000057031
H                0.6390809144        0.1432041815        0.7828681954
H                0.3609190856        0.8567958185        0.7828681954
H                0.1390809144        0.3567958185        0.7171318046
H                0.8609190856        0.6432041815        0.7171318046
H                0.3607185276        0.8568403119        0.2171509340
H                0.6392814724        0.1431596881        0.2171509340
H                0.8607185276        0.6431596881        0.2828490660
H                0.1392814724        0.3568403119        0.2828490660



     Writing config-only to output data dir ./pwscf.save/ :
     XML data file
     NEW-OLD atomic charge density approx. for the potential

     total cpu time spent up to now is      579.2 secs

     Self-consistent Calculation

     iteration #  1     ecut=   100.00 Ry     beta= 0.70
     Davidson diagonalization with overlap
     ethr =  1.00E-06,  avg # of iterations =  2.0

     Threshold (ethr) on eigenvalues was too large:
     Diagonalizing with lowered threshold

     Davidson diagonalization with overlap
     ethr =  9.93E-09,  avg # of iterations =  2.0

     total cpu time spent up to now is      608.8 secs

     total energy              =    -156.47339925 Ry
     estimated scf accuracy    <       0.00000668 Ry

     iteration #  2     ecut=   100.00 Ry     beta= 0.70
     Davidson diagonalization with overlap
     ethr =  1.39E-08,  avg # of iterations =  2.0

     total cpu time spent up to now is      623.8 secs

     total energy              =    -156.47340109 Ry
     estimated scf accuracy    <       0.00000123 Ry

     iteration #  3     ecut=   100.00 Ry     beta= 0.70
     Davidson diagonalization with overlap
     ethr =  2.56E-09,  avg # of iterations =  2.0

     total cpu time spent up to now is      638.8 secs

     total energy              =    -156.47340126 Ry
     estimated scf accuracy    <       0.00000002 Ry

     iteration #  4     ecut=   100.00 Ry     beta= 0.70
     Davidson diagonalization with overlap
     ethr =  4.18E-11,  avg # of iterations =  3.0

     total cpu time spent up to now is      657.2 secs

     total energy              =    -156.47340127 Ry
     estimated scf accuracy    <          8.9E-09 Ry

     iteration #  5     ecut=   100.00 Ry     beta= 0.70
     Davidson diagonalization with overlap
     ethr =  1.84E-11,  avg # of iterations =  2.1

     total cpu time spent up to now is      672.2 secs

     End of self-consistent calculation

          k = 0.0000 0.0000 0.0000 ( 24905 PWs)   bands (ev):

   -24.1415 -24.1337  -9.6400  -9.5600  -9.3840  -9.3488  -9.3163  -9.2596
    -6.1265  -5.2157  -4.5943  -4.4409  -1.8045  -0.9242  -0.8804  -0.5327
    -0.1531  -0.1350  -0.1004   0.0277   0.1901   0.5666   0.5870   0.6232

          k = 0.0000 0.0000 0.3616 ( 24930 PWs)   bands (ev):

   -24.1345 -24.1290  -9.5520  -9.5500  -9.5267  -9.4983  -9.3676  -9.3484
    -5.6540  -4.9742  -4.7518  -4.6523  -1.4366  -1.1919  -0.7337  -0.6976
    -0.5566  -0.4458  -0.0960   0.1782   0.3778   0.4025   0.4807   0.6210

          k = 0.0000 0.0000-0.7232 ( 24964 PWs)   bands (ev):

   -24.1259 -24.1259  -9.7535  -9.7533  -9.4187  -9.4187  -9.3774  -9.3774
    -4.9746  -4.9742  -4.8899  -4.8894  -1.1976  -1.1970  -1.1834  -1.1819
    -0.1696  -0.1691  -0.1192  -0.1173   0.4383   0.4383   0.4548   0.4551

          k = 0.0000 0.2436 0.0000 ( 24918 PWs)   bands (ev):

   -24.1404 -24.1349  -9.6128  -9.5326  -9.4309  -9.3806  -9.3078  -9.2677
    -5.9381  -5.1321  -4.8606  -4.5627  -1.4619  -1.0578  -0.9996  -0.2452
    -0.2362  -0.2275   0.0681   0.1855   0.2547   0.2748   0.4826   0.5595

          k = 0.0000 0.2436 0.3616 ( 24956 PWs)   bands (ev):

   -24.1337 -24.1298  -9.5919  -9.5549  -9.4848  -9.4734  -9.3754  -9.3678
    -5.5517  -5.0430  -4.7937  -4.6919  -1.2524  -1.2152  -1.0131  -0.4688
    -0.4309  -0.2488  -0.2288   0.2279   0.3087   0.3452   0.4544   0.5081

          k = 0.0000 0.2436-0.7232 ( 24964 PWs)   bands (ev):

   -24.1259 -24.1259  -9.7659  -9.7658  -9.4022  -9.4022  -9.3767  -9.3767
    -5.2323  -5.2323  -4.6226  -4.6226  -1.3109  -1.3102  -1.0179  -1.0171
    -0.1034  -0.1033  -0.0752  -0.0735   0.2784   0.2785   0.4475   0.4477

          k = 0.0000-0.4872 0.0000 ( 24922 PWs)   bands (ev):

   -24.1376 -24.1376  -9.5376  -9.5376  -9.4526  -9.4526  -9.2876  -9.2876
    -5.4634  -5.4634  -4.8332  -4.8332  -1.1741  -1.1741  -0.5509  -0.5509
    -0.3102  -0.3102   0.1661   0.1661   0.3069   0.3069   0.4232   0.4232

          k = 0.0000-0.4872 0.3616 ( 24956 PWs)   bands (ev):

   -24.1317 -24.1317  -9.5903  -9.5903  -9.4360  -9.4360  -9.4004  -9.4004
    -5.2961  -5.2961  -4.7671  -4.7671  -1.1962  -1.1962  -0.7943  -0.7943
    -0.2025  -0.2025   0.0768   0.0768   0.2195   0.2195   0.4315   0.4315

          k = 0.0000-0.4872-0.7232 ( 24944 PWs)   bands (ev):

   -24.1258 -24.1258  -9.7773  -9.7773  -9.3888  -9.3888  -9.3739  -9.3739
    -5.3528  -5.3528  -4.4928  -4.4928  -1.3975  -1.3975  -0.7871  -0.7871
    -0.1746  -0.1746   0.0046   0.0046   0.0896   0.0896   0.4833   0.4833

          k = 0.2498 0.0000 0.0000 ( 24873 PWs)   bands (ev):

   -24.1403 -24.1348  -9.6045  -9.5423  -9.4230  -9.3947  -9.3078  -9.2677
    -5.9468  -5.2532  -4.6288  -4.5854  -1.6196  -0.7912  -0.7901  -0.6508
    -0.1147  -0.0839  -0.0127   0.0414   0.1470   0.1595   0.5329   0.5691

          k = 0.2498 0.0000 0.3616 ( 24937 PWs)   bands (ev):

   -24.1337 -24.1298  -9.5831  -9.5656  -9.5110  -9.4518  -9.3899  -9.3568
    -5.5123  -4.9653  -4.7802  -4.7753  -1.4041  -1.1734  -1.0164  -0.5263
    -0.5038  -0.2455  -0.0240   0.1093   0.2381   0.3687   0.5490   0.5771

          k = 0.2498 0.0000-0.7232 ( 24918 PWs)   bands (ev):

   -24.1258 -24.1258  -9.7700  -9.7699  -9.4067  -9.4067  -9.3743  -9.3742
    -5.0410  -5.0406  -4.7956  -4.7953  -1.6497  -1.6492  -0.7654  -0.7651
    -0.1821  -0.1817   0.1280   0.1294   0.2534   0.2535   0.4897   0.4900

          k = 0.2498 0.2436 0.0000 ( 24929 PWs)   bands (ev):

   -24.1395 -24.1356  -9.6288  -9.5209  -9.4686  -9.3550  -9.3017  -9.2733
    -5.8095  -5.2142  -4.8508  -4.6242  -1.3455  -1.0260  -0.8079  -0.3599
    -0.2805  -0.2370   0.0434   0.1948   0.2027   0.2866   0.3487   0.4917

          k = 0.2498 0.2436 0.3616 ( 24940 PWs)   bands (ev):

   -24.1331 -24.1303  -9.5848  -9.5491  -9.5440  -9.4352  -9.3982  -9.3512
    -5.4265  -4.9956  -4.8732  -4.7679  -1.3679  -1.1272  -1.0524  -0.5166
    -0.3532  -0.1846  -0.0858   0.1272   0.2195   0.3309   0.4747   0.5565

          k = 0.2498 0.2436-0.7232 ( 24948 PWs)   bands (ev):

   -24.1258 -24.1258  -9.7766  -9.7551  -9.4252  -9.3902  -9.3807  -9.3749
    -5.2400  -5.0753  -4.7548  -4.5858  -1.6263  -1.5511  -0.8309  -0.7384
    -0.2256  -0.2255   0.1038   0.1562   0.2732   0.3099   0.4416   0.4694

          k = 0.2498-0.4872 0.0000 ( 24946 PWs)   bands (ev):

   -24.1376 -24.1376  -9.6050  -9.6050  -9.3861  -9.3861  -9.2873  -9.2873
    -5.4601  -5.4601  -4.8280  -4.8280  -1.0810  -1.0810  -0.5618  -0.5618
    -0.3444  -0.3444   0.1075   0.1075   0.3404   0.3404   0.3546   0.3546

          k = 0.2498-0.4872 0.3616 ( 24950 PWs)   bands (ev):

   -24.1317 -24.1317  -9.5801  -9.5801  -9.4896  -9.4896  -9.3636  -9.3636
    -5.2119  -5.2119  -4.8344  -4.8344  -1.2781  -1.2781  -0.7373  -0.7373
    -0.2134  -0.2134   0.0965   0.0965   0.2292   0.2292   0.4493   0.4493

          k = 0.2498-0.4872-0.7232 ( 24964 PWs)   bands (ev):

   -24.1258 -24.1258  -9.7626  -9.7626  -9.4094  -9.4094  -9.3799  -9.3799
    -5.2529  -5.2529  -4.5664  -4.5664  -1.5192  -1.5192  -0.8502  -0.8502
    -0.1175  -0.1175   0.0103   0.0103   0.2951   0.2951   0.4613   0.4613

          k =-0.4996 0.0000 0.0000 ( 24896 PWs)   bands (ev):

   -24.1376 -24.1376  -9.5191  -9.5191  -9.4786  -9.4786  -9.2876  -9.2876
    -5.5391  -5.5391  -4.6831  -4.6831  -1.2104  -1.2104  -0.4413  -0.4413
    -0.0764  -0.0764  -0.0749  -0.0749   0.0300   0.0300   0.4264   0.4264

          k =-0.4996 0.0000 0.3616 ( 24980 PWs)   bands (ev):

   -24.1317 -24.1317  -9.5933  -9.5933  -9.4551  -9.4551  -9.3883  -9.3883
    -5.1795  -5.1795  -4.8376  -4.8376  -1.3264  -1.3264  -0.7919  -0.7919
    -0.2193  -0.2193  -0.0331  -0.0331   0.3344   0.3344   0.5359   0.5359

          k =-0.4996 0.0000-0.7232 ( 24964 PWs)   bands (ev):

   -24.1258 -24.1258  -9.7854  -9.7854  -9.3973  -9.3973  -9.3696  -9.3696
    -5.0777  -5.0777  -4.7289  -4.7289  -1.8548  -1.8548  -0.4909  -0.4909
    -0.1907  -0.1907  -0.0194  -0.0194   0.4348   0.4348   0.4523   0.4523

          k =-0.4996 0.2436 0.0000 ( 24948 PWs)   bands (ev):

   -24.1376 -24.1376  -9.6036  -9.6036  -9.3913  -9.3913  -9.2873  -9.2873
    -5.5020  -5.5020  -4.7490  -4.7490  -1.1106  -1.1106  -0.4485  -0.4485
    -0.2786  -0.2786  -0.1082  -0.1082   0.2529   0.2529   0.4062   0.4062

          k =-0.4996 0.2436 0.3616 ( 24962 PWs)   bands (ev):

   -24.1317 -24.1317  -9.5820  -9.5820  -9.4938  -9.4938  -9.3625  -9.3625
    -5.1363  -5.1363  -4.8867  -4.8867  -1.3317  -1.3317  -0.7692  -0.7692
    -0.1840  -0.1840   0.0151   0.0151   0.3252   0.3252   0.4714   0.4714

          k =-0.4996 0.2436-0.7232 ( 24948 PWs)   bands (ev):

   -24.1258 -24.1258  -9.7670  -9.7670  -9.4119  -9.4119  -9.3791  -9.3791
    -5.1014  -5.1014  -4.6983  -4.6983  -1.7580  -1.7580  -0.6924  -0.6924
    -0.1449  -0.1449   0.0467   0.0467   0.3768   0.3768   0.5104   0.5104

          k =-0.4996-0.4872 0.0000 ( 24924 PWs)   bands (ev):

   -24.1375 -24.1375  -9.6449  -9.6449  -9.3472  -9.3472  -9.2870  -9.2870
    -5.4584  -5.4584  -4.8204  -4.8204  -0.9672  -0.9672  -0.5943  -0.5943
    -0.3755  -0.3755   0.0801   0.0801   0.2549   0.2549   0.3709   0.3709

          k =-0.4996-0.4872 0.3616 ( 24904 PWs)   bands (ev):

   -24.1317 -24.1317  -9.5598  -9.5598  -9.5331  -9.5331  -9.3469  -9.3469
    -5.0625  -5.0625  -4.9662  -4.9662  -1.3186  -1.3186  -0.8131  -0.8131
    -0.0329  -0.0329   0.0969   0.0969   0.2403   0.2403   0.3806   0.3806

          k =-0.4996-0.4872-0.7232 ( 24984 PWs)   bands (ev):

   -24.1258 -24.1258  -9.7462  -9.7462  -9.4324  -9.4324  -9.3851  -9.3851
    -5.1225  -5.1225  -4.6701  -4.6701  -1.6077  -1.6077  -0.9737  -0.9737
     0.0704   0.0704   0.1120   0.1120   0.2584   0.2584   0.4815   0.4815

     highest occupied level (ev):     0.6232

!    total energy              =    -156.47340127 Ry
     estimated scf accuracy    <          7.1E-11 Ry

     The total energy is the sum of the following terms:
     one-electron contribution =     -24.11270653 Ry
     hartree contribution      =      26.09066980 Ry
     xc contribution           =     -49.06465992 Ry
     ewald contribution        =    -109.38670462 Ry

     convergence has been achieved in   5 iterations

     Forces acting on atoms (cartesian axes, Ry/au):

     atom    1 type  2   force =     0.00000000    0.00000000    0.00000419
     atom    2 type  2   force =     0.00000000    0.00000000   -0.00000419
     atom    3 type  1   force =     0.00029107    0.00057535   -0.00000793
     atom    4 type  1   force =    -0.00029107   -0.00057535   -0.00000793
     atom    5 type  1   force =     0.00029107   -0.00057535    0.00000793
     atom    6 type  1   force =    -0.00029107    0.00057535    0.00000793
     atom    7 type  3   force =     0.00029542    0.00031003   -0.00001627
     atom    8 type  3   force =    -0.00029542   -0.00031003   -0.00001627
     atom    9 type  3   force =     0.00029542   -0.00031003    0.00001627
     atom   10 type  3   force =    -0.00029542    0.00031003    0.00001627
     atom   11 type  3   force =    -0.00000885    0.00073097    0.00000207
     atom   12 type  3   force =     0.00000885   -0.00073097    0.00000207
     atom   13 type  3   force =    -0.00000885   -0.00073097   -0.00000207
     atom   14 type  3   force =     0.00000885    0.00073097   -0.00000207
     atom   15 type  3   force =     0.00036754    0.00032448   -0.00022463
     atom   16 type  3   force =    -0.00036754   -0.00032448   -0.00022463
     atom   17 type  3   force =     0.00036754   -0.00032448    0.00022463
     atom   18 type  3   force =    -0.00036754    0.00032448    0.00022463
     atom   19 type  3   force =    -0.00033390   -0.00033381    0.00021826
     atom   20 type  3   force =     0.00033390    0.00033381    0.00021826
     atom   21 type  3   force =    -0.00033390    0.00033381   -0.00021826
     atom   22 type  3   force =     0.00033390   -0.00033381   -0.00021826

     Total force =     0.002604     Total SCF correction =     0.000002


     Computing stress (Cartesian axis) and pressure

          total   stress  (Ry/bohr**3)                   (kbar)     P=       -8.40
  -0.00005330   0.00000000   0.00000000           -7.84        0.00        0.00
   0.00000000  -0.00005373   0.00000000            0.00       -7.90        0.00
   0.00000000   0.00000000  -0.00006423            0.00        0.00       -9.45

     Volume is kept fixed: isostatic pressure set to zero
     Energy error            =      1.5E-05 Ry
     Gradient error          =      7.3E-04 Ry/Bohr
     Cell gradient error     =      1.1E+00 kbar

     number of scf cycles    =   4
     number of bfgs steps    =   3

     enthalpy           old  =    -156.4733863269 Ry
     enthalpy           new  =    -156.4734012704 Ry

     CASE: enthalpy          _new < enthalpy          _old

     new trust radius        =       0.0046216858 bohr
ibrav =      8
 celldm(1) =     12.77903323
 celldm(2) =      1.02536987
 celldm(3) =      0.69020918
Input lattice vectors:
     1.00111954     0.00000000     0.00000000
     0.00000000     1.02651781     0.00000000
     0.00000000     0.00000000     0.69098189
New lattice vectors in INITIAL alat:
     1.00111954     0.00000000     0.00000000
     0.00000000     1.02651781     0.00000000
     0.00000000     0.00000000     0.69098189
New lattice vectors in NEW alat (for information only):
     1.00000000     0.00000000     0.00000000
     0.00000000     1.02536987     0.00000000
     0.00000000     0.00000000     0.69020918
Discrepancy in bohr =     0.000000    0.000000    0.000000
     new conv_thr            =            1.5E-12 Ry

     new unit-cell volume =   1476.91425 a.u.^3 (   218.85611 Ang^3 )
     density =      2.53437 g/cm^3

CELL_PARAMETERS (alat= 12.76474260)
   1.001119540   0.000000000   0.000000000
   0.000000000   1.026517814   0.000000000
   0.000000000   0.000000000   0.690981893

ATOMIC_POSITIONS (crystal)
Ba               0.5000000000        0.5000000000        0.5001055391
Ba               0.0000000000        0.0000000000        0.9998944609
B                0.6104243053        0.2397182637        0.0000569555
B                0.3895756947        0.7602817363        0.0000569555
B                0.1104243053        0.2602817363        0.4999430445
B                0.8895756947        0.7397182637        0.4999430445
H                0.4362020098        0.2917801433        0.0002160325
H                0.5637979902        0.7082198567        0.0002160325
H                0.9362020098        0.2082198567        0.4997839675
H                0.0637979902        0.7917801433        0.4997839675
H                0.7207208962        0.3822588931       -0.0000048719
H                0.2792791038        0.6177411069       -0.0000048719
H                0.2207208962        0.1177411069        0.5000048719
H                0.7792791038        0.8822588931        0.5000048719
H                0.6391533781        0.1433322737        0.7829294727
H                0.3608466219        0.8566677263        0.7829294727
H                0.1391533781        0.3566677263        0.7170705273
H                0.8608466219        0.6433322737        0.7170705273
H                0.3606545233        0.8567098033        0.2170873061
H                0.6393454767        0.1432901967        0.2170873061
H                0.8606545233        0.6432901967        0.2829126939
H                0.1393454767        0.3567098033        0.2829126939



     Writing config-only to output data dir ./pwscf.save/ :
     XML data file
     NEW-OLD atomic charge density approx. for the potential

     total cpu time spent up to now is      703.9 secs

     Self-consistent Calculation

     iteration #  1     ecut=   100.00 Ry     beta= 0.70
     Davidson diagonalization with overlap
     ethr =  1.00E-06,  avg # of iterations =  2.0

     Threshold (ethr) on eigenvalues was too large:
     Diagonalizing with lowered threshold

     Davidson diagonalization with overlap
     ethr =  1.38E-08,  avg # of iterations =  3.0

     total cpu time spent up to now is      734.8 secs

     total energy              =    -156.47342122 Ry
     estimated scf accuracy    <       0.00000901 Ry

     iteration #  2     ecut=   100.00 Ry     beta= 0.70
     Davidson diagonalization with overlap
     ethr =  1.88E-08,  avg # of iterations =  2.0

     total cpu time spent up to now is      749.7 secs

     total energy              =    -156.47342327 Ry
     estimated scf accuracy    <       0.00000096 Ry

     iteration #  3     ecut=   100.00 Ry     beta= 0.70
     Davidson diagonalization with overlap
     ethr =  2.01E-09,  avg # of iterations =  2.0

     total cpu time spent up to now is      764.7 secs

     total energy              =    -156.47342342 Ry
     estimated scf accuracy    <       0.00000002 Ry

     iteration #  4     ecut=   100.00 Ry     beta= 0.70
     Davidson diagonalization with overlap
     ethr =  5.18E-11,  avg # of iterations =  5.0

     total cpu time spent up to now is      783.2 secs

     total energy              =    -156.47342343 Ry
     estimated scf accuracy    <          4.8E-09 Ry

     iteration #  5     ecut=   100.00 Ry     beta= 0.70
     Davidson diagonalization with overlap
     ethr =  1.01E-11,  avg # of iterations =  4.4

     total cpu time spent up to now is      801.1 secs

     total energy              =    -156.47342343 Ry
     estimated scf accuracy    <          1.1E-10 Ry

     iteration #  6     ecut=   100.00 Ry     beta= 0.70
     Davidson diagonalization with overlap
     ethr =  2.21E-13,  avg # of iterations =  5.9

     total cpu time spent up to now is      825.0 secs

     total energy              =    -156.47342343 Ry
     estimated scf accuracy    <          2.6E-12 Ry

     iteration #  7     ecut=   100.00 Ry     beta= 0.70
     Davidson diagonalization with overlap
     ethr =  1.00E-13,  avg # of iterations =  1.4

     total cpu time spent up to now is      837.1 secs

     End of self-consistent calculation

          k = 0.0000 0.0000 0.0000 ( 24905 PWs)   bands (ev):

   -24.1413 -24.1335  -9.6406  -9.5604  -9.3844  -9.3489  -9.3161  -9.2595
    -6.1289  -5.2194  -4.5978  -4.4451  -1.8075  -0.9265  -0.8820  -0.5377
    -0.1526  -0.1398  -0.0973   0.0279   0.1925   0.5627   0.5836   0.6163

          k = 0.0000 0.0000 0.3618 ( 24930 PWs)   bands (ev):

   -24.1343 -24.1288  -9.5522  -9.5511  -9.5280  -9.4984  -9.3677  -9.3483
    -5.6553  -4.9765  -4.7561  -4.6571  -1.4377  -1.1935  -0.7359  -0.6997
    -0.5570  -0.4452  -0.0979   0.1762   0.3749   0.3973   0.4784   0.6154

          k = 0.0000 0.0000-0.7236 ( 24964 PWs)   bands (ev):

   -24.1256 -24.1256  -9.7557  -9.7556  -9.4184  -9.4183  -9.3775  -9.3774
    -4.9752  -4.9748  -4.8952  -4.8947  -1.1968  -1.1963  -1.1851  -1.1837
    -0.1719  -0.1714  -0.1210  -0.1192   0.4324   0.4324   0.4518   0.4520

          k = 0.0000 0.2435 0.0000 ( 24918 PWs)   bands (ev):

   -24.1401 -24.1347  -9.6134  -9.5331  -9.4312  -9.3807  -9.3076  -9.2676
    -5.9407  -5.1365  -4.8631  -4.5666  -1.4656  -1.0599  -1.0016  -0.2437
    -0.2340  -0.2323   0.0629   0.1864   0.2486   0.2764   0.4787   0.5558

          k = 0.0000 0.2435 0.3618 ( 24956 PWs)   bands (ev):

   -24.1334 -24.1296  -9.5926  -9.5559  -9.4855  -9.4736  -9.3757  -9.3678
    -5.5532  -5.0456  -4.7974  -4.6963  -1.2539  -1.2167  -1.0149  -0.4686
    -0.4320  -0.2520  -0.2296   0.2255   0.3054   0.3397   0.4521   0.5040

          k = 0.0000 0.2435-0.7236 ( 24964 PWs)   bands (ev):

   -24.1256 -24.1256  -9.7680  -9.7679  -9.4019  -9.4019  -9.3768  -9.3768
    -5.2352  -5.2352  -4.6255  -4.6255  -1.3124  -1.3118  -1.0173  -1.0166
    -0.1062  -0.1061  -0.0776  -0.0760   0.2757   0.2758   0.4421   0.4422

          k = 0.0000-0.4871 0.0000 ( 24922 PWs)   bands (ev):

   -24.1374 -24.1374  -9.5383  -9.5383  -9.4526  -9.4526  -9.2874  -9.2874
    -5.4667  -5.4667  -4.8364  -4.8364  -1.1767  -1.1767  -0.5553  -0.5553
    -0.3081  -0.3081   0.1605   0.1605   0.3078   0.3078   0.4195   0.4195

          k = 0.0000-0.4871 0.3618 ( 24956 PWs)   bands (ev):

   -24.1315 -24.1315  -9.5912  -9.5912  -9.4365  -9.4365  -9.4005  -9.4005
    -5.2982  -5.2982  -4.7708  -4.7708  -1.1976  -1.1976  -0.7960  -0.7960
    -0.2042  -0.2042   0.0759   0.0759   0.2138   0.2138   0.4288   0.4288

          k = 0.0000-0.4871-0.7236 ( 24944 PWs)   bands (ev):

   -24.1256 -24.1256  -9.7793  -9.7793  -9.3886  -9.3886  -9.3740  -9.3740
    -5.3558  -5.3558  -4.4953  -4.4953  -1.3990  -1.3990  -0.7864  -0.7864
    -0.1783  -0.1783   0.0025   0.0025   0.0862   0.0862   0.4786   0.4786

          k = 0.2497 0.0000 0.0000 ( 24873 PWs)   bands (ev):

   -24.1401 -24.1347  -9.6052  -9.5427  -9.4233  -9.3947  -9.3076  -9.2676
    -5.9496  -5.2571  -4.6323  -4.5891  -1.6227  -0.7954  -0.7916  -0.6537
    -0.1123  -0.0828  -0.0115   0.0358   0.1486   0.1569   0.5286   0.5623

          k = 0.2497 0.0000 0.3618 ( 24937 PWs)   bands (ev):

   -24.1334 -24.1295  -9.5839  -9.5664  -9.5116  -9.4522  -9.3900  -9.3569
    -5.5140  -4.9677  -4.7844  -4.7796  -1.4044  -1.1753  -1.0169  -0.5279
    -0.5059  -0.2463  -0.0271   0.1061   0.2368   0.3660   0.5433   0.5738

          k = 0.2497 0.0000-0.7236 ( 24918 PWs)   bands (ev):

   -24.1256 -24.1255  -9.7721  -9.7720  -9.4065  -9.4064  -9.3743  -9.3743
    -5.0448  -5.0445  -4.7978  -4.7975  -1.6497  -1.6492  -0.7661  -0.7659
    -0.1843  -0.1840   0.1252   0.1266   0.2489   0.2489   0.4857   0.4860

          k = 0.2497 0.2435 0.0000 ( 24929 PWs)   bands (ev):

[...]
        18        H      tau(  18) = (   0.8609323   0.6648529   0.4933138  )
        19        H      tau(  19) = (   0.3558938   0.8727362   0.1504168  )
        20        H      tau(  20) = (   0.6542148   0.1523254   0.1504168  )
        21        H      tau(  21) = (   0.8609481   0.6648562   0.1924860  )
        22        H      tau(  22) = (   0.1491605   0.3602054   0.1924860  )

     number of k points=    27
                       cart. coord. in units 2pi/alat
        k(    1) = (   0.0000000   0.0000000   0.0000000), wk =   0.0312500
        k(    2) = (   0.0000000   0.0000000   0.3645348), wk =   0.0625000
        k(    3) = (   0.0000000   0.0000000  -0.7290695), wk =   0.0312500
        k(    4) = (   0.0000000   0.2438878   0.0000000), wk =   0.0625000
        k(    5) = (   0.0000000   0.2438878   0.3645348), wk =   0.1250000
        k(    6) = (   0.0000000   0.2438878  -0.7290695), wk =   0.0625000
        k(    7) = (   0.0000000  -0.4877756   0.0000000), wk =   0.0312500
        k(    8) = (   0.0000000  -0.4877756   0.3645348), wk =   0.0625000
        k(    9) = (   0.0000000  -0.4877756  -0.7290695), wk =   0.0312500
        k(   10) = (   0.2474981   0.0000000   0.0000000), wk =   0.0625000
        k(   11) = (   0.2474981   0.0000000   0.3645348), wk =   0.1250000
        k(   12) = (   0.2474981   0.0000000  -0.7290695), wk =   0.0625000
        k(   13) = (   0.2474981   0.2438878   0.0000000), wk =   0.1250000
        k(   14) = (   0.2474981   0.2438878   0.3645348), wk =   0.2500000
        k(   15) = (   0.2474981   0.2438878  -0.7290695), wk =   0.1250000
        k(   16) = (   0.2474981  -0.4877756   0.0000000), wk =   0.0625000
        k(   17) = (   0.2474981  -0.4877756   0.3645348), wk =   0.1250000
        k(   18) = (   0.2474981  -0.4877756  -0.7290695), wk =   0.0625000
        k(   19) = (  -0.4949963   0.0000000   0.0000000), wk =   0.0312500
        k(   20) = (  -0.4949963   0.0000000   0.3645348), wk =   0.0625000
        k(   21) = (  -0.4949963   0.0000000  -0.7290695), wk =   0.0312500
        k(   22) = (  -0.4949963   0.2438878   0.0000000), wk =   0.0625000
        k(   23) = (  -0.4949963   0.2438878   0.3645348), wk =   0.1250000
        k(   24) = (  -0.4949963   0.2438878  -0.7290695), wk =   0.0625000
        k(   25) = (  -0.4949963  -0.4877756   0.0000000), wk =   0.0312500
        k(   26) = (  -0.4949963  -0.4877756   0.3645348), wk =   0.0625000
        k(   27) = (  -0.4949963  -0.4877756  -0.7290695), wk =   0.0312500

     Dense  grid:   564159 G-vectors     FFT dimensions: ( 120, 120,  80)

     Smooth grid:   199431 G-vectors     FFT dimensions: (  90,  90,  60)

     Estimated max dynamical RAM per process >      93.22 MB

     Estimated total dynamical RAM >       2.18 GB

     Initial potential from superposition of free atoms

     starting charge      47.9682, renormalised to      48.0000
     Starting wfcs are   42 randomized atomic wfcs

     total cpu time spent up to now is     9223.3 secs

     Self-consistent Calculation

     iteration #  1     ecut=   100.00 Ry     beta= 0.70
     Davidson diagonalization with overlap
     ethr =  1.00E-06,  avg # of iterations = 11.0

     total cpu time spent up to now is     9275.6 secs

     total energy              =    -155.83793038 Ry
     estimated scf accuracy    <       2.25629885 Ry

     iteration #  2     ecut=   100.00 Ry     beta= 0.70
     Davidson diagonalization with overlap
     ethr =  4.70E-03,  avg # of iterations =  2.0

     total cpu time spent up to now is     9292.4 secs

     total energy              =    -156.39776052 Ry
     estimated scf accuracy    <       0.46746930 Ry

     iteration #  3     ecut=   100.00 Ry     beta= 0.70
     Davidson diagonalization with overlap
     ethr =  9.74E-04,  avg # of iterations =  2.0

     total cpu time spent up to now is     9309.0 secs

     total energy              =    -156.47116756 Ry
     estimated scf accuracy    <       0.00566045 Ry

     iteration #  4     ecut=   100.00 Ry     beta= 0.70
     Davidson diagonalization with overlap
     ethr =  1.18E-05,  avg # of iterations =  3.3

     total cpu time spent up to now is     9329.8 secs

     total energy              =    -156.47324863 Ry
     estimated scf accuracy    <       0.00224660 Ry

     iteration #  5     ecut=   100.00 Ry     beta= 0.70
     Davidson diagonalization with overlap
     ethr =  4.68E-06,  avg # of iterations =  3.2

     total cpu time spent up to now is     9347.4 secs

     total energy              =    -156.47388800 Ry
     estimated scf accuracy    <       0.00004965 Ry

     iteration #  6     ecut=   100.00 Ry     beta= 0.70
     Davidson diagonalization with overlap
     ethr =  1.03E-07,  avg # of iterations =  6.2

     total cpu time spent up to now is     9375.4 secs

     total energy              =    -156.47398702 Ry
     estimated scf accuracy    <       0.00001879 Ry

     iteration #  7     ecut=   100.00 Ry     beta= 0.70
     Davidson diagonalization with overlap
     ethr =  3.91E-08,  avg # of iterations =  2.1

     total cpu time spent up to now is     9392.4 secs

     total energy              =    -156.47399070 Ry
     estimated scf accuracy    <       0.00000025 Ry

     iteration #  8     ecut=   100.00 Ry     beta= 0.70
     Davidson diagonalization with overlap
     ethr =  5.31E-10,  avg # of iterations =  6.5

     total cpu time spent up to now is     9421.0 secs

     total energy              =    -156.47399120 Ry
     estimated scf accuracy    <       0.00000010 Ry

     iteration #  9     ecut=   100.00 Ry     beta= 0.70
     Davidson diagonalization with overlap
     ethr =  2.10E-10,  avg # of iterations =  2.1

     total cpu time spent up to now is     9437.6 secs

     total energy              =    -156.47399120 Ry
     estimated scf accuracy    <       0.00000001 Ry

     iteration # 10     ecut=   100.00 Ry     beta= 0.70
     Davidson diagonalization with overlap
     ethr =  2.13E-11,  avg # of iterations =  4.4

     total cpu time spent up to now is     9457.5 secs

     total energy              =    -156.47399121 Ry
     estimated scf accuracy    <          1.5E-10 Ry

     iteration # 11     ecut=   100.00 Ry     beta= 0.70
     Davidson diagonalization with overlap
     ethr =  3.07E-13,  avg # of iterations =  8.4

     total cpu time spent up to now is     9495.2 secs

     total energy              =    -156.47399121 Ry
     estimated scf accuracy    <          6.4E-11 Ry

     iteration # 12     ecut=   100.00 Ry     beta= 0.70
     Davidson diagonalization with overlap
     ethr =  1.34E-13,  avg # of iterations =  2.4

     total cpu time spent up to now is     9513.1 secs

     total energy              =    -156.47399121 Ry
     estimated scf accuracy    <          1.5E-12 Ry

     iteration # 13     ecut=   100.00 Ry     beta= 0.70
     Davidson diagonalization with overlap
     ethr =  1.00E-13,  avg # of iterations =  1.0

     total cpu time spent up to now is     9526.2 secs

     End of self-consistent calculation

          k = 0.0000 0.0000 0.0000 ( 24923 PWs)   bands (ev):

   -24.1009 -24.0930  -9.6266  -9.5515  -9.3611  -9.3223  -9.2841  -9.2260
    -6.1491  -5.2355  -4.6029  -4.4824  -1.8451  -0.9256  -0.8913  -0.5358
    -0.2484  -0.2062  -0.0808  -0.0629   0.1980   0.5480   0.5570   0.5966

          k = 0.0000 0.0000 0.3645 ( 24946 PWs)   bands (ev):

   -24.0931 -24.0876  -9.5409  -9.5328  -9.5184  -9.4818  -9.3424  -9.3200
    -5.6478  -4.9644  -4.7778  -4.7001  -1.4524  -1.2522  -0.8566  -0.7014
    -0.5487  -0.4531  -0.1025   0.1597   0.3594   0.3611   0.4314   0.5706

          k = 0.0000 0.0000-0.7291 ( 24980 PWs)   bands (ev):

   -24.0837 -24.0837  -9.7626  -9.7626  -9.3902  -9.3901  -9.3516  -9.3516
    -4.9407  -4.9406  -4.9400  -4.9400  -1.2798  -1.2797  -1.2144  -1.2144
    -0.1650  -0.1650  -0.1218  -0.1216   0.3726   0.3727   0.4297   0.4299

          k = 0.0000 0.2439 0.0000 ( 24946 PWs)   bands (ev):

   -24.0997 -24.0942  -9.5988  -9.5230  -9.4084  -9.3564  -9.2755  -9.2344
    -5.9615  -5.1702  -4.8532  -4.5947  -1.5185  -1.0798  -0.9991  -0.2679
    -0.2412  -0.2403  -0.0193   0.1183   0.2312   0.2440   0.4627   0.5306

          k = 0.0000 0.2439 0.3645 ( 24930 PWs)   bands (ev):

   -24.0923 -24.0884  -9.5797  -9.5452  -9.4684  -9.4564  -9.3513  -9.3407
    -5.5461  -5.0372  -4.8177  -4.7339  -1.2798  -1.2740  -1.0770  -0.4915
    -0.4649  -0.2504  -0.2448   0.1974   0.2998   0.3041   0.4175   0.4622

          k = 0.0000 0.2439-0.7291 ( 24946 PWs)   bands (ev):

   -24.0837 -24.0837  -9.7743  -9.7743  -9.3738  -9.3738  -9.3512  -9.3512
    -5.2389  -5.2389  -4.6314  -4.6314  -1.4159  -1.4159  -1.0315  -1.0315
    -0.0958  -0.0957  -0.0809  -0.0808   0.2530   0.2531   0.3910   0.3910

          k = 0.0000-0.4878 0.0000 ( 24954 PWs)   bands (ev):

   -24.0969 -24.0969  -9.5236  -9.5236  -9.4319  -9.4319  -9.2548  -9.2548
    -5.4936  -5.4936  -4.8431  -4.8431  -1.2232  -1.2232  -0.5609  -0.5609
    -0.3126  -0.3126   0.1347   0.1347   0.2425   0.2425   0.3845   0.3845

          k = 0.0000-0.4878 0.3645 ( 24988 PWs)   bands (ev):

   -24.0903 -24.0903  -9.5795  -9.5795  -9.4188  -9.4188  -9.3752  -9.3752
    -5.2921  -5.2921  -4.7969  -4.7969  -1.2603  -1.2603  -0.8172  -0.8172
    -0.2411  -0.2411   0.0873   0.0873   0.1708   0.1708   0.4010   0.4010

          k = 0.0000-0.4878-0.7291 ( 24964 PWs)   bands (ev):

   -24.0837 -24.0837  -9.7852  -9.7852  -9.3602  -9.3602  -9.3489  -9.3489
    -5.3606  -5.3606  -4.4990  -4.4990  -1.5085  -1.5085  -0.8107  -0.8107
    -0.1464  -0.1464   0.0048   0.0048   0.0411   0.0411   0.4418   0.4418

          k = 0.2475 0.0000 0.0000 ( 24933 PWs)   bands (ev):

   -24.0997 -24.0942  -9.5905  -9.5312  -9.4009  -9.3695  -9.2755  -9.2344
    -5.9720  -5.2756  -4.6414  -4.6229  -1.6527  -0.8218  -0.7972  -0.6674
    -0.1513  -0.0874  -0.0769  -0.0470   0.1360   0.1617   0.4991   0.5367

          k = 0.2475 0.0000 0.3645 ( 24956 PWs)   bands (ev):

   -24.0923 -24.0884  -9.5723  -9.5533  -9.4942  -9.4351  -9.3650  -9.3298
    -5.5121  -4.9572  -4.8217  -4.8057  -1.4270  -1.2084  -1.0807  -0.5309
    -0.5087  -0.2739  -0.0796   0.0800   0.2151   0.3515   0.4956   0.5265

          k = 0.2475 0.0000-0.7291 ( 24970 PWs)   bands (ev):

   -24.0837 -24.0837  -9.7780  -9.7779  -9.3785  -9.3785  -9.3479  -9.3479
    -5.0780  -5.0780  -4.7772  -4.7772  -1.6963  -1.6963  -0.8106  -0.8106
    -0.1682  -0.1682   0.0861   0.0861   0.2086   0.2087   0.4456   0.4457

          k = 0.2475 0.2439 0.0000 ( 24932 PWs)   bands (ev):

   -24.0989 -24.0950  -9.6160  -9.5076  -9.4470  -9.3301  -9.2693  -9.2402
    -5.8405  -5.2587  -4.8483  -4.6403  -1.3983  -1.0556  -0.8287  -0.3772
    -0.2967  -0.2453   0.0028   0.1360   0.1430   0.2471   0.3505   0.4664

          k = 0.2475 0.2439 0.3645 ( 24943 PWs)   bands (ev):

   -24.0917 -24.0889  -9.5734  -9.5397  -9.5253  -9.4180  -9.3734  -9.3240
    -5.4279  -4.9972  -4.8985  -4.7995  -1.3972  -1.1878  -1.0924  -0.5475
    -0.3753  -0.2166  -0.1032   0.1200   0.1803   0.3029   0.4377   0.5146

          k = 0.2475 0.2439-0.7291 ( 24958 PWs)   bands (ev):

   -24.0837 -24.0837  -9.7844  -9.7641  -9.3958  -9.3628  -9.3536  -9.3492
    -5.2621  -5.0826  -4.7670  -4.5819  -1.6953  -1.5887  -0.9198  -0.7789
    -0.2173  -0.2019   0.0854   0.1581   0.2098   0.2715   0.4117   0.4182

          k = 0.2475-0.4878 0.0000 ( 24904 PWs)   bands (ev):

   -24.0969 -24.0969  -9.5912  -9.5912  -9.3635  -9.3635  -9.2545  -9.2545
    -5.5075  -5.5075  -4.8212  -4.8212  -1.1416  -1.1416  -0.5826  -0.5826
    -0.3491  -0.3491   0.0791   0.0791   0.2801   0.2801   0.3405   0.3405

          k = 0.2475-0.4878 0.3645 ( 24956 PWs)   bands (ev):

   -24.0903 -24.0903  -9.5678  -9.5678  -9.4733  -9.4733  -9.3379  -9.3379
    -5.2179  -5.2179  -4.8565  -4.8565  -1.3233  -1.3233  -0.7900  -0.7900
    -0.2427  -0.2427   0.0743   0.0743   0.2282   0.2282   0.4086   0.4086

          k = 0.2475-0.4878-0.7291 ( 24952 PWs)   bands (ev):

   -24.0837 -24.0837  -9.7712  -9.7712  -9.3800  -9.3800  -9.3543  -9.3543
    -5.2628  -5.2628  -4.5754  -4.5754  -1.5869  -1.5869  -0.9155  -0.9155
    -0.1155  -0.1155   0.0179   0.0179   0.2657   0.2657   0.4208   0.4208

          k =-0.4950 0.0000 0.0000 ( 24842 PWs)   bands (ev):

   -24.0969 -24.0969  -9.5062  -9.5062  -9.4548  -9.4548  -9.2548  -9.2548
    -5.5670  -5.5670  -4.7064  -4.7064  -1.2419  -1.2419  -0.4492  -0.4492
    -0.1114  -0.1114  -0.0949  -0.0949  -0.0087  -0.0087   0.3841   0.3841

          k =-0.4950 0.0000 0.3645 ( 24954 PWs)   bands (ev):

   -24.0903 -24.0903  -9.5815  -9.5815  -9.4360  -9.4360  -9.3638  -9.3638
    -5.1889  -5.1889  -4.8629  -4.8629  -1.3556  -1.3556  -0.8191  -0.8191
    -0.2325  -0.2325  -0.0654  -0.0654   0.2935   0.2935   0.4826   0.4826

          k =-0.4950 0.0000-0.7291 ( 24936 PWs)   bands (ev):

   -24.0837 -24.0837  -9.7923  -9.7923  -9.3698  -9.3698  -9.3423  -9.3423
    -5.1314  -5.1314  -4.6966  -4.6966  -1.8926  -1.8926  -0.5379  -0.5379
    -0.1664  -0.1664  -0.0627  -0.0627   0.3864   0.3864   0.3879   0.3879

          k =-0.4950 0.2439 0.0000 ( 24946 PWs)   bands (ev):

   -24.0969 -24.0969  -9.5894  -9.5894  -9.3681  -9.3681  -9.2545  -9.2545
    -5.5455  -5.5455  -4.7516  -4.7516  -1.1592  -1.1592  -0.4835  -0.4835
    -0.2901  -0.2901  -0.1196  -0.1196   0.2042   0.2042   0.3825   0.3825

          k =-0.4950 0.2439 0.3645 ( 24934 PWs)   bands (ev):

   -24.0903 -24.0903  -9.5689  -9.5689  -9.4775  -9.4775  -9.3364  -9.3364
    -5.1525  -5.1525  -4.9031  -4.9031  -1.3632  -1.3632  -0.8198  -0.8198
    -0.1805  -0.1805  -0.0340  -0.0340   0.3042   0.3042   0.4283   0.4283

          k =-0.4950 0.2439-0.7291 ( 24904 PWs)   bands (ev):

   -24.0837 -24.0837  -9.7750  -9.7750  -9.3830  -9.3830  -9.3525  -9.3525
    -5.1325  -5.1325  -4.6897  -4.6897  -1.7984  -1.7984  -0.7577  -0.7577
    -0.1207  -0.1207   0.0043   0.0043   0.3293   0.3293   0.4784   0.4784

          k =-0.4950-0.4878 0.0000 ( 24904 PWs)   bands (ev):

   -24.0969 -24.0969  -9.6314  -9.6314  -9.3225  -9.3225  -9.2542  -9.2542
    -5.5218  -5.5218  -4.7983  -4.7983  -1.0451  -1.0451  -0.6217  -0.6217
    -0.3818  -0.3818   0.0455   0.0455   0.2760   0.2760   0.3137   0.3137

          k =-0.4950-0.4878 0.3645 ( 24920 PWs)   bands (ev):

   -24.0903 -24.0903  -9.5400  -9.5400  -9.5246  -9.5246  -9.3197  -9.3197
    -5.0990  -5.0990  -4.9603  -4.9603  -1.3566  -1.3566  -0.8652  -0.8652
    -0.0960  -0.0960   0.1207   0.1207   0.1848   0.1848   0.3781   0.3781

          k =-0.4950-0.4878-0.7291 ( 24928 PWs)   bands (ev):

   -24.0837 -24.0837  -9.7558  -9.7558  -9.4019  -9.4019  -9.3589  -9.3589
    -5.1342  -5.1342  -4.6821  -4.6821  -1.6498  -1.6498  -1.0406  -1.0406
     0.0170   0.0170   0.1470   0.1470   0.2115   0.2115   0.4657   0.4657

     highest occupied level (ev):     0.5966

!    total energy              =    -156.47399121 Ry
     estimated scf accuracy    <          6.7E-13 Ry

     The total energy is the sum of the following terms:
     one-electron contribution =     -25.18541372 Ry
     hartree contribution      =      26.62822694 Ry
     xc contribution           =     -49.09482016 Ry
     ewald contribution        =    -108.82198428 Ry

     convergence has been achieved in  13 iterations

     Forces acting on atoms (cartesian axes, Ry/au):

     atom    1 type  2   force =     0.00000000    0.00000000   -0.00000911
     atom    2 type  2   force =     0.00000000    0.00000000    0.00000911
     atom    3 type  1   force =    -0.00000316    0.00000060   -0.00000015
     atom    4 type  1   force =     0.00000316   -0.00000060   -0.00000015
     atom    5 type  1   force =    -0.00000316   -0.00000060    0.00000015
     atom    6 type  1   force =     0.00000316    0.00000060    0.00000015
     atom    7 type  3   force =     0.00000586    0.00000171    0.00000793
     atom    8 type  3   force =    -0.00000586   -0.00000171    0.00000793
     atom    9 type  3   force =     0.00000586   -0.00000171   -0.00000793
     atom   10 type  3   force =    -0.00000586    0.00000171   -0.00000793
     atom   11 type  3   force =    -0.00000591   -0.00000723   -0.00000327
     atom   12 type  3   force =     0.00000591    0.00000723   -0.00000327
     atom   13 type  3   force =    -0.00000591    0.00000723    0.00000327
     atom   14 type  3   force =     0.00000591   -0.00000723    0.00000327
     atom   15 type  3   force =     0.00000425    0.00000329    0.00000553
     atom   16 type  3   force =    -0.00000425   -0.00000329    0.00000553
     atom   17 type  3   force =     0.00000425   -0.00000329   -0.00000553
     atom   18 type  3   force =    -0.00000425    0.00000329   -0.00000553
     atom   19 type  3   force =    -0.00000098   -0.00000147   -0.00000617
     atom   20 type  3   force =     0.00000098    0.00000147   -0.00000617
     atom   21 type  3   force =    -0.00000098    0.00000147    0.00000617
     atom   22 type  3   force =     0.00000098   -0.00000147    0.00000617

     Total force =     0.000037     Total SCF correction =     0.000000


     Computing stress (Cartesian axis) and pressure

          total   stress  (Ry/bohr**3)                   (kbar)     P=       -4.79
  -0.00003255   0.00000000   0.00000000           -4.79        0.00        0.00
   0.00000000  -0.00003261   0.00000000            0.00       -4.80        0.00
   0.00000000   0.00000000  -0.00003261            0.00        0.00       -4.80


     Writing all to output data dir ./pwscf.save/ :
     XML data file, charge density, pseudopotentials, collected wavefunctions

     init_run     :     19.51s CPU     21.05s WALL (       2 calls)
     electrons    :   7649.47s CPU   7708.13s WALL (      58 calls)
     update_pot   :     14.11s CPU     15.66s WALL (      56 calls)
     forces       :    190.47s CPU    191.73s WALL (      58 calls)
     stress       :   1597.35s CPU   1603.10s WALL (      58 calls)

     Called by init_run:
     wfcinit      :     15.62s CPU     15.75s WALL (       2 calls)
     potinit      :      0.73s CPU      1.21s WALL (       2 calls)
     hinit0       :      1.35s CPU      2.20s WALL (       2 calls)

     Called by electrons:
     c_bands      :   6715.71s CPU   6758.42s WALL (     436 calls)
     sum_band     :    802.72s CPU    811.63s WALL (     436 calls)
     v_of_rho     :     54.83s CPU     57.62s WALL (     447 calls)
     newd         :     80.32s CPU     81.95s WALL (     447 calls)
     mix_rho      :      6.10s CPU      6.68s WALL (     436 calls)

     Called by c_bands:
     init_us_2    :    163.53s CPU    165.43s WALL (   26730 calls)
     cegterg      :   5953.05s CPU   5993.32s WALL (   11772 calls)

     Called by *egterg:
     cdiaghg      :     82.80s CPU     83.32s WALL (   46400 calls)
     h_psi        :   4169.63s CPU   4202.64s WALL (   49235 calls)
     s_psi        :    785.90s CPU    788.84s WALL (   49235 calls)
     g_psi        :     16.20s CPU     16.28s WALL (   37409 calls)

     Called by h_psi:
     h_psi:calbec :    703.74s CPU    707.15s WALL (   49235 calls)
     vloc_psi     :   2659.00s CPU   2685.94s WALL (   49235 calls)
     add_vuspsi   :    794.23s CPU    797.07s WALL (   49235 calls)

     General routines
     calbec       :   1496.28s CPU   1502.09s WALL (   68837 calls)
     fft          :     42.85s CPU     48.03s WALL (    7248 calls)
     ffts         :      2.69s CPU      3.33s WALL (     883 calls)
     fftw         :   2584.29s CPU   2610.57s WALL ( 2024030 calls)
     interpolate  :      4.07s CPU      4.98s WALL (     447 calls)

     Parallel routines

     PWSCF        :      2h38m CPU      2h39m WALL


   This run was terminated on:  18: 9:57  11Jul2024            

=------------------------------------------------------------------------------=
   JOB DONE.
=------------------------------------------------------------------------------=
