
     Program PWSCF v.7.3.1 starts on 27May2024 at 17:27: 9 

     This program is part of the open-source Quantum ESPRESSO suite
     for quantum simulation of materials; please cite
         "P. Giannozzi et al., J. Phys.:Condens. Matter 21 395502 (2009);
         "P. Giannozzi et al., J. Phys.:Condens. Matter 29 465901 (2017);
         "P. Giannozzi et al., J. Chem. Phys. 152 154105 (2020);
          URL http://www.quantum-espresso.org", 
     in publications or presentations arising from this work. More details at
     http://www.quantum-espresso.org/quote

     Parallel version (MPI), running on    24 processors

     MPI processes distributed on     1 nodes
     95335 MiB available memory on the printing compute node when the environment starts

     Waiting for input...
     Reading input from standard input
Warning: card &CELL ignored
Warning: card / ignored

     Current dimensions of program PWSCF are:
     Max number of different atomic species (ntypx) = 10
     Max number of k-points (npk) =  40000
     Max angular momentum in pseudopotentials (lmaxx) =  4

     gamma-point specific algorithms are used

     R & G space division:  proc/nbgrp/npool/nimage =      24
     Subspace diagonalization in iterative solution of the eigenvalue problem:
     a serial algorithm will be used


     Parallelization info
     --------------------
     sticks:   dense  smooth     PW     G-vecs:    dense   smooth      PW
     Min         525     262     64                30350    10731    1336
     Max         528     266     66                30356    10736    1342
     Sum       12641    6323   1573               728455   257635   32163

     Using Slab Decomposition


     Title: 
     ecut_test                                                                  


     bravais-lattice index     =            8
     lattice parameter (alat)  =      13.1993  a.u.
     unit-cell volume          =    1652.2482 (a.u.)^3
     number of atoms/cell      =           22
     number of atomic types    =            3
     number of electrons       =        48.00
     number of Kohn-Sham states=           24
     kinetic-energy cutoff     =     110.0000  Ry
     charge density cutoff     =     880.0000  Ry
     scf convergence threshold =      1.0E-08
     mixing beta               =       0.7000
     number of iterations used =            8  plain     mixing
     Exchange-correlation= PBESOL
                           (   1   4  10   8   0   0   0)

     celldm(1)=  13.199283  celldm(2)=   1.034883  celldm(3)=   0.694277
     celldm(4)=   0.000000  celldm(5)=   0.000000  celldm(6)=   0.000000

     crystal axes: (cart. coord. in units of alat)
               a(1) = (   1.000000   0.000000   0.000000 )  
               a(2) = (   0.000000   1.034883   0.000000 )  
               a(3) = (   0.000000   0.000000   0.694277 )  

     reciprocal axes: (cart. coord. in units 2 pi/alat)
               b(1) = (  1.000000  0.000000  0.000000 )  
               b(2) = (  0.000000  0.966293  0.000000 )  
               b(3) = (  0.000000  0.000000  1.440347 )  


     PseudoPot. # 1 for B  read from file:
     /home/mehlhorn/pseudos/b_pbesol_v1.4.uspp.F.UPF
     MD5 check sum: 369b69bef2c3aeed4453bd8b804fd6a8
     Pseudo is Ultrasoft + core correction, Zval =  3.0
     Generated by new atomic code, or converted to UPF format
     Using radial grid of  781 points,  4 beta functions with: 
                l(1) =   0
                l(2) =   0
                l(3) =   1
                l(4) =   1
     Q(r) pseudized with  8 coefficients,  rinner =    1.100   1.100   1.100


     PseudoPot. # 2 for Ba read from file:
     /home/mehlhorn/pseudos/Ba.nc.z_10.oncvpsp4.dojo.v4-sp.upf
     MD5 check sum: c10ed334bb677c0554edec7181ce9143
     Pseudo is Norm-conserving + core correction, Zval = 10.0
     Generated using ONCVPSP code by D. R. Hamann
     Using radial grid of 1938 points,  8 beta functions with: 
                l(1) =   0
                l(2) =   0
                l(3) =   1
                l(4) =   1
                l(5) =   2
                l(6) =   2
                l(7) =   3
                l(8) =   3

     PseudoPot. # 3 for H  read from file:
     /home/mehlhorn/pseudos/H_ONCV_PBEsol-1.0.upf
     MD5 check sum: 398ef8f67c0a7342c05c87c5e19ea467
     Pseudo is Norm-conserving, Zval =  1.0
     Generated using ONCVPSP code by D. R. Hamann
     Using radial grid of 1180 points,  2 beta functions with: 
                l(1) =   0
                l(2) =   0

     atomic species   valence    mass     pseudopotential
     B                 3.00    10.81100     B ( 1.00)
     Ba               10.00   137.32700     Ba( 1.00)
     H                 1.00     1.00794     H ( 1.00)

      4 Sym. Ops. (no inversion) found ( 2 have fractional translation)



   Cartesian axes

     site n.     atom                  positions (alat units)
         1        Ba     tau(   1) = (   0.5000000   0.5174415   0.3471942  )
         2        Ba     tau(   2) = (   0.0000000   0.0000000   0.6942217  )
         3        B      tau(   3) = (   0.6308000   0.2628603   0.0000139  )
         4        B      tau(   4) = (   0.3692000   0.7720228   0.0000139  )
         5        B      tau(   5) = (   0.1308000   0.2545812   0.3471247  )
         6        B      tau(   6) = (   0.8692000   0.7803018   0.3471247  )
         7        H      tau(   7) = (   0.4582000   0.2939068   0.0001805  )
         8        H      tau(   8) = (   0.5418000   0.7409763   0.0001805  )
         9        H      tau(   9) = (   0.9582000   0.2235347   0.3469581  )
        10        H      tau(  10) = (   0.0418000   0.8113483   0.3469581  )
        11        H      tau(  11) = (   0.7204000   0.4141602   0.0000000  )
        12        H      tau(  12) = (   0.2796000   0.6207229   0.0000000  )
        13        H      tau(  13) = (   0.2204000   0.1032813   0.3471386  )
        14        H      tau(  14) = (   0.7796000   0.9316018   0.3471386  )
        15        H      tau(  15) = (   0.6689000   0.1713766   0.5494094  )
        16        H      tau(  16) = (   0.3311000   0.8635064   0.5494094  )
        17        H      tau(  17) = (   0.1689000   0.3460649   0.4920065  )
        18        H      tau(  18) = (   0.8311000   0.6888182   0.4920065  )
        19        H      tau(  19) = (   0.3311000   0.8635064   0.1448679  )
        20        H      tau(  20) = (   0.6689000   0.1713766   0.1448679  )
        21        H      tau(  21) = (   0.8311000   0.6888182   0.2022707  )
        22        H      tau(  22) = (   0.1689000   0.3460649   0.2022707  )

     number of k points=     1
                       cart. coord. in units 2pi/alat
        k(    1) = (   0.0000000   0.0000000   0.0000000), wk =   2.0000000

     Dense  grid:   364228 G-vectors     FFT dimensions: ( 128, 144,  90)

     Smooth grid:   128818 G-vectors     FFT dimensions: (  90,  96,  64)

     Estimated max dynamical RAM per process >      46.43 MB

     Estimated total dynamical RAM >       1.09 GB

     Initial potential from superposition of free atoms

     starting charge      47.9682, renormalised to      48.0000
     Starting wfcs are   42 randomized atomic wfcs

     total cpu time spent up to now is        4.4 secs

     Self-consistent Calculation

     iteration #  1     ecut=   110.00 Ry     beta= 0.70
     Davidson diagonalization with overlap
     ethr =  1.00E-02,  avg # of iterations =  2.0

     total cpu time spent up to now is        5.2 secs

     total energy              =    -155.77479636 Ry
     estimated scf accuracy    <       2.37381852 Ry

     iteration #  2     ecut=   110.00 Ry     beta= 0.70
     Davidson diagonalization with overlap
     ethr =  4.95E-03,  avg # of iterations =  2.0

     total cpu time spent up to now is        6.0 secs

     total energy              =    -156.32597079 Ry
     estimated scf accuracy    <       0.43404338 Ry

     iteration #  3     ecut=   110.00 Ry     beta= 0.70
     Davidson diagonalization with overlap
     ethr =  9.04E-04,  avg # of iterations =  2.0

     total cpu time spent up to now is        6.7 secs

     total energy              =    -156.39848787 Ry
     estimated scf accuracy    <       0.00573550 Ry

     iteration #  4     ecut=   110.00 Ry     beta= 0.70
     Davidson diagonalization with overlap
     ethr =  1.19E-05,  avg # of iterations =  6.0

     total cpu time spent up to now is        7.6 secs

     total energy              =    -156.40216169 Ry
     estimated scf accuracy    <       0.00195971 Ry

     iteration #  5     ecut=   110.00 Ry     beta= 0.70
     Davidson diagonalization with overlap
     ethr =  4.08E-06,  avg # of iterations =  4.0

     total cpu time spent up to now is        8.4 secs

     total energy              =    -156.40282443 Ry
     estimated scf accuracy    <       0.00022258 Ry

     iteration #  6     ecut=   110.00 Ry     beta= 0.70
     Davidson diagonalization with overlap
     ethr =  4.64E-07,  avg # of iterations =  4.0

     total cpu time spent up to now is        9.1 secs

     total energy              =    -156.40288194 Ry
     estimated scf accuracy    <       0.00000351 Ry

     iteration #  7     ecut=   110.00 Ry     beta= 0.70
     Davidson diagonalization with overlap
     ethr =  7.32E-09,  avg # of iterations =  6.0

     total cpu time spent up to now is       10.1 secs

     total energy              =    -156.40288509 Ry
     estimated scf accuracy    <       0.00000245 Ry

     iteration #  8     ecut=   110.00 Ry     beta= 0.70
     Davidson diagonalization with overlap
     ethr =  5.10E-09,  avg # of iterations =  2.0

     total cpu time spent up to now is       10.8 secs

     total energy              =    -156.40288554 Ry
     estimated scf accuracy    <       0.00000005 Ry

     iteration #  9     ecut=   110.00 Ry     beta= 0.70
     Davidson diagonalization with overlap
     ethr =  1.01E-10,  avg # of iterations =  6.0

     total cpu time spent up to now is       11.9 secs

     total energy              =    -156.40288564 Ry
     estimated scf accuracy    <       0.00000003 Ry

     iteration # 10     ecut=   110.00 Ry     beta= 0.70
     Davidson diagonalization with overlap
     ethr =  5.86E-11,  avg # of iterations =  2.0

     total cpu time spent up to now is       12.6 secs

     End of self-consistent calculation

          k = 0.0000 0.0000 0.0000 ( 16082 PWs)   bands (ev):

   -25.2188 -25.2145 -10.5772 -10.5392 -10.4082 -10.3945 -10.3195 -10.2792
    -6.5739  -5.7917  -5.4493  -5.3177  -2.2173  -1.3833  -1.3473  -1.0218
    -0.9680  -0.9144  -0.8361  -0.8161  -0.5078  -0.1416  -0.1413  -0.0845

     highest occupied level (ev):    -0.0845

!    total energy              =    -156.40288565 Ry
     estimated scf accuracy    <          7.2E-10 Ry

     The total energy is the sum of the following terms:
     one-electron contribution =     -35.65964941 Ry
     hartree contribution      =      30.48112990 Ry
     xc contribution           =     -49.01720287 Ry
     ewald contribution        =    -102.20716326 Ry

     convergence has been achieved in  10 iterations

     Writing all to output data dir ./pwscf.save/ :
     XML data file, charge density, pseudopotentials, collected wavefunctions

     init_run     :      2.35s CPU      4.01s WALL (       1 calls)
     electrons    :      8.05s CPU      8.23s WALL (       1 calls)

     Called by init_run:
     wfcinit      :      0.21s CPU      0.25s WALL (       1 calls)
     potinit      :      0.64s CPU      1.35s WALL (       1 calls)
     hinit0       :      0.99s CPU      1.87s WALL (       1 calls)

     Called by electrons:
     c_bands      :      3.46s CPU      3.48s WALL (      10 calls)
     sum_band     :      1.59s CPU      1.63s WALL (      10 calls)
     v_of_rho     :      1.59s CPU      1.65s WALL (      11 calls)
     newd         :      1.30s CPU      1.32s WALL (      11 calls)
     mix_rho      :      0.19s CPU      0.21s WALL (      10 calls)

     Called by c_bands:
     init_us_2    :      0.05s CPU      0.06s WALL (      21 calls)
     regterg      :      3.05s CPU      3.06s WALL (      10 calls)

     Called by *egterg:
     rdiaghg      :      0.07s CPU      0.07s WALL (      46 calls)
     h_psi        :      2.24s CPU      2.28s WALL (      47 calls)
     s_psi        :      0.42s CPU      0.42s WALL (      47 calls)
     g_psi        :      0.01s CPU      0.01s WALL (      36 calls)

     Called by h_psi:
     h_psi:calbec :      0.36s CPU      0.36s WALL (      47 calls)
     vloc_psi     :      1.45s CPU      1.49s WALL (      47 calls)
     add_vuspsi   :      0.42s CPU      0.42s WALL (      47 calls)

     General routines
     calbec       :      0.46s CPU      0.46s WALL (      57 calls)
     fft          :      1.85s CPU      2.79s WALL (     119 calls)
     ffts         :      0.51s CPU      1.20s WALL (      21 calls)
     fftw         :      1.43s CPU      1.46s WALL (     948 calls)
     interpolate  :      0.58s CPU      1.28s WALL (      11 calls)

     Parallel routines

     PWSCF        :     10.75s CPU     12.77s WALL


   This run was terminated on:  17:27:22  27May2024            

=------------------------------------------------------------------------------=
   JOB DONE.
=------------------------------------------------------------------------------=
