
     Program PWSCF v.7.3.1 starts on  6Aug2024 at 14:42:28 

     This program is part of the open-source Quantum ESPRESSO suite
     for quantum simulation of materials; please cite
         "P. Giannozzi et al., J. Phys.:Condens. Matter 21 395502 (2009);
         "P. Giannozzi et al., J. Phys.:Condens. Matter 29 465901 (2017);
         "P. Giannozzi et al., J. Chem. Phys. 152 154105 (2020);
          URL http://www.quantum-espresso.org", 
     in publications or presentations arising from this work. More details at
     http://www.quantum-espresso.org/quote

     Parallel version (MPI), running on    24 processors

     MPI processes distributed on     1 nodes
     93705 MiB available memory on the printing compute node when the environment starts

     Waiting for input...
     Reading input from standard input

     Current dimensions of program PWSCF are:
     Max number of different atomic species (ntypx) = 10
     Max number of k-points (npk) =  40000
     Max angular momentum in pseudopotentials (lmaxx) =  4

     R & G space division:  proc/nbgrp/npool/nimage =      24
     Subspace diagonalization in iterative solution of the eigenvalue problem:
     a serial algorithm will be used


     Parallelization info
     --------------------
     sticks:   dense  smooth     PW     G-vecs:    dense   smooth      PW
     Min         473     237     65                26015     9189    1321
     Max         474     238     66                26018     9191    1323
     Sum       11375    5691   1561               624421   220545   31731

     Using Slab Decomposition


     Title: 
     volume variation                                                           


     bravais-lattice index     =            8
     lattice parameter (alat)  =      13.2018  a.u.
     unit-cell volume          =    1633.8810 (a.u.)^3
     number of atoms/cell      =           22
     number of atomic types    =            3
     number of electrons       =        48.00
     number of Kohn-Sham states=           24
     kinetic-energy cutoff     =     100.0000  Ry
     charge density cutoff     =     800.0000  Ry
     scf convergence threshold =      1.0E-10
     mixing beta               =       0.7000
     number of iterations used =            8  plain     mixing
     energy convergence thresh.=      1.0E-05
     force convergence thresh. =      1.0E-05
     press convergence thresh. =      5.0E-01
     Exchange-correlation= PBESOL
                           (   1   4  10   8   0   0   0)
     nstep                     =          300


     celldm(1)=  13.201819  celldm(2)=   1.025571  celldm(3)=   0.692394
     celldm(4)=   0.000000  celldm(5)=   0.000000  celldm(6)=   0.000000

     crystal axes: (cart. coord. in units of alat)
               a(1) = (   1.000000   0.000000   0.000000 )  
               a(2) = (   0.000000   1.025571   0.000000 )  
               a(3) = (   0.000000   0.000000   0.692394 )  

     reciprocal axes: (cart. coord. in units 2 pi/alat)
               b(1) = (  1.000000  0.000000  0.000000 )  
               b(2) = (  0.000000  0.975067  0.000000 )  
               b(3) = (  0.000000  0.000000  1.444264 )  


     PseudoPot. # 1 for B  read from file:
     /home/mehlhorn/pseudos/b_pbesol_v1.4.uspp.F.UPF
     MD5 check sum: 369b69bef2c3aeed4453bd8b804fd6a8
     Pseudo is Ultrasoft + core correction, Zval =  3.0
     Generated by new atomic code, or converted to UPF format
     Using radial grid of  781 points,  4 beta functions with: 
                l(1) =   0
                l(2) =   0
                l(3) =   1
                l(4) =   1
     Q(r) pseudized with  8 coefficients,  rinner =    1.100   1.100   1.100


     PseudoPot. # 2 for Ba read from file:
     /home/mehlhorn/pseudos/Ba.nc.z_10.oncvpsp4.dojo.v4-sp.upf
     MD5 check sum: c10ed334bb677c0554edec7181ce9143
     Pseudo is Norm-conserving + core correction, Zval = 10.0
     Generated using ONCVPSP code by D. R. Hamann
     Using radial grid of 1938 points,  8 beta functions with: 
                l(1) =   0
                l(2) =   0
                l(3) =   1
                l(4) =   1
                l(5) =   2
                l(6) =   2
                l(7) =   3
                l(8) =   3

     PseudoPot. # 3 for H  read from file:
     /home/mehlhorn/pseudos/H_ONCV_PBEsol-1.0.upf
     MD5 check sum: 398ef8f67c0a7342c05c87c5e19ea467
     Pseudo is Norm-conserving, Zval =  1.0
     Generated using ONCVPSP code by D. R. Hamann
     Using radial grid of 1180 points,  2 beta functions with: 
                l(1) =   0
                l(2) =   0

     atomic species   valence    mass     pseudopotential
     B                 3.00    10.81100     B ( 1.00)
     Ba               10.00   137.32700     Ba( 1.00)
     H                 1.00     1.00794     H ( 1.00)

      4 Sym. Ops. (no inversion) found ( 2 have fractional translation)



   Cartesian axes

     site n.     atom                  positions (alat units)
         1        Ba     tau(   1) = (   0.5000000   0.5127855   0.3462657  )
         2        Ba     tau(   2) = (   0.0000000   0.0000000   0.6923255  )
         3        B      tau(   3) = (   0.6102570   0.2453190   0.0000455  )
         4        B      tau(   4) = (   0.3897430   0.7802519   0.0000455  )
         5        B      tau(   5) = (   0.1102570   0.2674665   0.3461516  )
         6        B      tau(   6) = (   0.8897430   0.7581045   0.3461516  )
         7        H      tau(   7) = (   0.4340973   0.2996264   0.0001599  )
         8        H      tau(   8) = (   0.5659027   0.7259445   0.0001599  )
         9        H      tau(   9) = (   0.9340973   0.2131590   0.3460372  )
        10        H      tau(  10) = (   0.0659027   0.8124119   0.3460372  )
        11        H      tau(  11) = (   0.7220603   0.3933629  -0.0000058  )
        12        H      tau(  12) = (   0.2779397   0.6322081  -0.0000058  )
        13        H      tau(  13) = (   0.2220603   0.1194226   0.3462029  )
        14        H      tau(  14) = (   0.7779397   0.9061483   0.3462029  )
        15        H      tau(  15) = (   0.6392499   0.1457279   0.5404125  )
        16        H      tau(  16) = (   0.3607501   0.8798430   0.5404125  )
        17        H      tau(  17) = (   0.1392499   0.3670576   0.4981787  )
        18        H      tau(  18) = (   0.8607501   0.6585133   0.4981787  )
        19        H      tau(  19) = (   0.3605328   0.8798946   0.1519977  )
        20        H      tau(  20) = (   0.6394672   0.1456763   0.1519977  )
        21        H      tau(  21) = (   0.8605328   0.6584617   0.1941994  )
        22        H      tau(  22) = (   0.1394672   0.3671092   0.1941994  )

     number of k points=    27
                       cart. coord. in units 2pi/alat
        k(    1) = (   0.0000000   0.0000000   0.0000000), wk =   0.0312500
        k(    2) = (   0.0000000   0.0000000   0.3610660), wk =   0.0625000
        k(    3) = (   0.0000000   0.0000000  -0.7221320), wk =   0.0312500
        k(    4) = (   0.0000000   0.2437667   0.0000000), wk =   0.0625000
        k(    5) = (   0.0000000   0.2437667   0.3610660), wk =   0.1250000
        k(    6) = (   0.0000000   0.2437667  -0.7221320), wk =   0.0625000
        k(    7) = (   0.0000000  -0.4875333   0.0000000), wk =   0.0312500
        k(    8) = (   0.0000000  -0.4875333   0.3610660), wk =   0.0625000
        k(    9) = (   0.0000000  -0.4875333  -0.7221320), wk =   0.0312500
        k(   10) = (   0.2500000   0.0000000   0.0000000), wk =   0.0625000
        k(   11) = (   0.2500000   0.0000000   0.3610660), wk =   0.1250000
        k(   12) = (   0.2500000   0.0000000  -0.7221320), wk =   0.0625000
        k(   13) = (   0.2500000   0.2437667   0.0000000), wk =   0.1250000
        k(   14) = (   0.2500000   0.2437667   0.3610660), wk =   0.2500000
        k(   15) = (   0.2500000   0.2437667  -0.7221320), wk =   0.1250000
        k(   16) = (   0.2500000  -0.4875333   0.0000000), wk =   0.0625000
        k(   17) = (   0.2500000  -0.4875333   0.3610660), wk =   0.1250000
        k(   18) = (   0.2500000  -0.4875333  -0.7221320), wk =   0.0625000
        k(   19) = (  -0.5000000   0.0000000   0.0000000), wk =   0.0312500
        k(   20) = (  -0.5000000   0.0000000   0.3610660), wk =   0.0625000
        k(   21) = (  -0.5000000   0.0000000  -0.7221320), wk =   0.0312500
        k(   22) = (  -0.5000000   0.2437667   0.0000000), wk =   0.0625000
        k(   23) = (  -0.5000000   0.2437667   0.3610660), wk =   0.1250000
        k(   24) = (  -0.5000000   0.2437667  -0.7221320), wk =   0.0625000
        k(   25) = (  -0.5000000  -0.4875333   0.0000000), wk =   0.0312500
        k(   26) = (  -0.5000000  -0.4875333   0.3610660), wk =   0.0625000
        k(   27) = (  -0.5000000  -0.4875333  -0.7221320), wk =   0.0312500

     Dense  grid:   624421 G-vectors     FFT dimensions: ( 120, 128,  90)

     Smooth grid:   220545 G-vectors     FFT dimensions: (  90,  90,  60)

     Estimated max dynamical RAM per process >      98.92 MB

     Estimated total dynamical RAM >       2.32 GB

     Initial potential from superposition of free atoms

     starting charge      47.9682, renormalised to      48.0000
     Starting wfcs are   42 randomized atomic wfcs

     total cpu time spent up to now is       12.8 secs

     Self-consistent Calculation

     iteration #  1     ecut=   100.00 Ry     beta= 0.70
     Davidson diagonalization with overlap
     ethr =  1.00E-02,  avg # of iterations =  2.0

     total cpu time spent up to now is       30.0 secs

     total energy              =    -155.95332063 Ry
     estimated scf accuracy    <       1.80093467 Ry

     iteration #  2     ecut=   100.00 Ry     beta= 0.70
     Davidson diagonalization with overlap
     ethr =  3.75E-03,  avg # of iterations =  2.0

     total cpu time spent up to now is       47.3 secs

     total energy              =    -156.36086560 Ry
     estimated scf accuracy    <       0.35412773 Ry

     iteration #  3     ecut=   100.00 Ry     beta= 0.70
     Davidson diagonalization with overlap
     ethr =  7.38E-04,  avg # of iterations =  2.0

     total cpu time spent up to now is       64.4 secs

     total energy              =    -156.42071528 Ry
     estimated scf accuracy    <       0.00441903 Ry

     iteration #  4     ecut=   100.00 Ry     beta= 0.70
     Davidson diagonalization with overlap
     ethr =  9.21E-06,  avg # of iterations =  5.2

     total cpu time spent up to now is       89.4 secs

     total energy              =    -156.42327824 Ry
     estimated scf accuracy    <       0.00191854 Ry

     iteration #  5     ecut=   100.00 Ry     beta= 0.70
     Davidson diagonalization with overlap
     ethr =  4.00E-06,  avg # of iterations =  2.9

     total cpu time spent up to now is      107.0 secs

     total energy              =    -156.42392238 Ry
     estimated scf accuracy    <       0.00020337 Ry

     iteration #  6     ecut=   100.00 Ry     beta= 0.70
     Davidson diagonalization with overlap
     ethr =  4.24E-07,  avg # of iterations =  4.0

     total cpu time spent up to now is      126.4 secs

     total energy              =    -156.42399084 Ry
     estimated scf accuracy    <       0.00000195 Ry

     iteration #  7     ecut=   100.00 Ry     beta= 0.70
     Davidson diagonalization with overlap
     ethr =  4.07E-09,  avg # of iterations =  9.3

     total cpu time spent up to now is      167.1 secs

     total energy              =    -156.42400538 Ry
     estimated scf accuracy    <       0.00000162 Ry

     iteration #  8     ecut=   100.00 Ry     beta= 0.70
     Davidson diagonalization with overlap
     ethr =  3.37E-09,  avg # of iterations =  2.0

     total cpu time spent up to now is      184.2 secs

     total energy              =    -156.42400563 Ry
     estimated scf accuracy    <       0.00000004 Ry

     iteration #  9     ecut=   100.00 Ry     beta= 0.70
     Davidson diagonalization with overlap
     ethr =  9.31E-11,  avg # of iterations =  5.7

     total cpu time spent up to now is      208.0 secs

     total energy              =    -156.42400567 Ry
     estimated scf accuracy    <          3.3E-09 Ry

     iteration # 10     ecut=   100.00 Ry     beta= 0.70
     Davidson diagonalization with overlap
     ethr =  6.90E-12,  avg # of iterations =  4.8

     total cpu time spent up to now is      229.3 secs

     End of self-consistent calculation

          k = 0.0000 0.0000 0.0000 ( 27613 PWs)   bands (ev):

   -25.0932 -25.0890 -10.4178 -10.3734 -10.2652 -10.2464 -10.2089 -10.1738
    -6.3265  -5.4805  -5.0803  -4.9017  -2.1257  -1.3504  -1.2571  -0.8991
    -0.6175  -0.6150  -0.5850  -0.4304  -0.3060   0.0504   0.0906   0.1275

          k = 0.0000 0.0000 0.3611 ( 27585 PWs)   bands (ev):

   -25.0893 -25.0863 -10.3642 -10.3522 -10.3355 -10.3342 -10.2565 -10.2467
    -5.9672  -5.3296  -5.1668  -5.0431  -1.8354  -1.5974  -1.1420  -1.0642
    -0.9737  -0.8867  -0.5658  -0.3207  -0.1131  -0.0925  -0.0461   0.0985

          k = 0.0000 0.0000-0.7221 ( 27522 PWs)   bands (ev):

   -25.0844 -25.0844 -10.4817 -10.4816 -10.2813 -10.2813 -10.2689 -10.2689
    -5.3950  -5.3945  -5.2221  -5.2216  -1.5916  -1.5913  -1.5684  -1.5669
    -0.6347  -0.6334  -0.5694  -0.5683  -0.1033  -0.1031  -0.0633  -0.0627

          k = 0.0000 0.2438 0.0000 ( 27625 PWs)   bands (ev):

   -25.0926 -25.0897 -10.4004 -10.3573 -10.2901 -10.2646 -10.2037 -10.1788
    -6.1770  -5.4257  -5.2897  -4.9911  -1.8345  -1.4960  -1.3493  -0.7046
    -0.6756  -0.6398  -0.4028  -0.3152  -0.2311  -0.2139  -0.0202   0.0642

          k = 0.0000 0.2438 0.3611 ( 27570 PWs)   bands (ev):

   -25.0888 -25.0867 -10.3815 -10.3531 -10.3217 -10.3202 -10.2582 -10.2574
    -5.8721  -5.3812  -5.2157  -5.0839  -1.6656  -1.6213  -1.3779  -0.9136
    -0.8699  -0.6748  -0.6739  -0.2809  -0.1708  -0.1620  -0.0560   0.0027

          k = 0.0000 0.2438-0.7221 ( 27542 PWs)   bands (ev):

   -25.0844 -25.0844 -10.4900 -10.4899 -10.2721 -10.2721 -10.2684 -10.2683
    -5.5239  -5.5237  -5.0912  -5.0911  -1.6652  -1.6645  -1.4509  -1.4504
    -0.5706  -0.5689  -0.5394  -0.5394  -0.2286  -0.2284  -0.0693  -0.0690

          k = 0.0000-0.4875 0.0000 ( 27540 PWs)   bands (ev):

   -25.0911 -25.0911 -10.3557 -10.3557 -10.3053 -10.3053 -10.1911 -10.1911
    -5.7889  -5.7889  -5.1950  -5.1950  -1.5961  -1.5961  -0.9504  -0.9504
    -0.7490  -0.7490  -0.2931  -0.2931  -0.2082  -0.2082  -0.0643  -0.0643

          k = 0.0000-0.4875 0.3611 ( 27582 PWs)   bands (ev):

   -25.0878 -25.0878 -10.3774 -10.3774 -10.2999 -10.2999 -10.2700 -10.2700
    -5.6297  -5.6297  -5.1687  -5.1687  -1.6013  -1.6013  -1.1953  -1.1953
    -0.6689  -0.6689  -0.4108  -0.4108  -0.2507  -0.2507  -0.0678  -0.0678

          k = 0.0000-0.4875-0.7221 ( 27496 PWs)   bands (ev):

   -25.0844 -25.0844 -10.4976 -10.4976 -10.2696 -10.2696 -10.2617 -10.2617
    -5.6003  -5.6003  -5.0130  -5.0130  -1.7352  -1.7352  -1.2786  -1.2786
    -0.5834  -0.5834  -0.4920  -0.4920  -0.3885  -0.3885  -0.0358  -0.0358

          k = 0.2500 0.0000 0.0000 ( 27576 PWs)   bands (ev):

   -25.0926 -25.0896 -10.3965 -10.3616 -10.2871 -10.2710 -10.2037 -10.1788
    -6.1828  -5.5501  -5.0908  -5.0093  -1.9612  -1.2439  -1.1861  -1.0226
    -0.6124  -0.5328  -0.4829  -0.4137  -0.3331  -0.3113   0.0328   0.0815

          k = 0.2500 0.0000 0.3611 ( 27620 PWs)   bands (ev):

   -25.0888 -25.0867 -10.3742 -10.3613 -10.3385 -10.3059 -10.2680 -10.2492
    -5.8484  -5.3510  -5.1793  -5.1388  -1.8037  -1.5606  -1.4139  -0.9672
    -0.8953  -0.7151  -0.4806  -0.3578  -0.2650  -0.1276   0.0437   0.0511

          k = 0.2500 0.0000-0.7221 ( 27588 PWs)   bands (ev):

   -25.0844 -25.0844 -10.4920 -10.4920 -10.2761 -10.2760 -10.2655 -10.2654
    -5.3742  -5.3737  -5.2237  -5.2234  -1.9861  -1.9856  -1.2259  -1.2254
    -0.6112  -0.6110  -0.3832  -0.3816  -0.2457  -0.2455  -0.0266  -0.0263

          k = 0.2500 0.2438 0.0000 ( 27607 PWs)   bands (ev):

   -25.0922 -25.0901 -10.4109 -10.3479 -10.3126 -10.2494 -10.1999 -10.1823
    -6.0627  -5.5207  -5.2588  -5.0620  -1.7189  -1.4386  -1.1979  -0.7831
    -0.7227  -0.6822  -0.4184  -0.3074  -0.2650  -0.2267  -0.1214  -0.0040

          k = 0.2500 0.2438 0.3611 ( 27601 PWs)   bands (ev):

   -25.0885 -25.0870 -10.3732 -10.3591 -10.3525 -10.2976 -10.2692 -10.2477
    -5.7670  -5.3485  -5.2812  -5.1522  -1.7587  -1.5193  -1.4555  -0.9640
    -0.7767  -0.6451  -0.5340  -0.3562  -0.2604  -0.1563  -0.0354   0.0360

          k = 0.2500 0.2438-0.7221 ( 27586 PWs)   bands (ev):

   -25.0844 -25.0844 -10.4964 -10.4836 -10.2843 -10.2715 -10.2671 -10.2646
    -5.5123  -5.4172  -5.1781  -5.0826  -1.9621  -1.9121  -1.2670  -1.2304
    -0.6455  -0.6377  -0.4029  -0.3761  -0.1973  -0.1954  -0.0796  -0.0274

          k = 0.2500-0.4875 0.0000 ( 27650 PWs)   bands (ev):

   -25.0911 -25.0911 -10.3956 -10.3956 -10.2670 -10.2670 -10.1910 -10.1910
    -5.7548  -5.7548  -5.2304  -5.2304  -1.4920  -1.4920  -0.9669  -0.9669
    -0.7734  -0.7734  -0.3507  -0.3507  -0.1851  -0.1851  -0.1268  -0.1268

          k = 0.2500-0.4875 0.3611 ( 27572 PWs)   bands (ev):

   -25.0878 -25.0878 -10.3735 -10.3735 -10.3236 -10.3236 -10.2537 -10.2537
    -5.5596  -5.5596  -5.2302  -5.2302  -1.6645  -1.6645  -1.1736  -1.1736
    -0.6522  -0.6522  -0.3757  -0.3757  -0.2578  -0.2578  -0.0564  -0.0564

          k = 0.2500-0.4875-0.7221 ( 27524 PWs)   bands (ev):

   -25.0844 -25.0844 -10.4885 -10.4885 -10.2762 -10.2762 -10.2694 -10.2694
    -5.5307  -5.5307  -5.0621  -5.0621  -1.8755  -1.8755  -1.3153  -1.3153
    -0.5540  -0.5540  -0.4439  -0.4439  -0.2278  -0.2278  -0.0409  -0.0409

          k =-0.5000 0.0000 0.0000 ( 27618 PWs)   bands (ev):

   -25.0911 -25.0911 -10.3479 -10.3479 -10.3169 -10.3169 -10.1911 -10.1911
    -5.8397  -5.8397  -5.0964  -5.0964  -1.5925  -1.5925  -0.8802  -0.8802
    -0.5666  -0.5666  -0.5164  -0.5164  -0.4251  -0.4251  -0.0463  -0.0463

          k =-0.5000 0.0000 0.3611 ( 27600 PWs)   bands (ev):

   -25.0878 -25.0878 -10.3776 -10.3776 -10.3107 -10.3107 -10.2641 -10.2641
    -5.5650  -5.5650  -5.1991  -5.1991  -1.7136  -1.7136  -1.2171  -1.2171
    -0.6591  -0.6591  -0.4918  -0.4918  -0.1641  -0.1641   0.0247   0.0247

          k =-0.5000 0.0000-0.7221 ( 27604 PWs)   bands (ev):

   -25.0844 -25.0844 -10.5016 -10.5016 -10.2735 -10.2735 -10.2600 -10.2600
    -5.3563  -5.3563  -5.2212  -5.2212  -2.1687  -2.1687  -1.0196  -1.0196
    -0.6287  -0.6287  -0.4599  -0.4599  -0.1037  -0.1037  -0.0396  -0.0396

          k =-0.5000 0.2438 0.0000 ( 27592 PWs)   bands (ev):

   -25.0911 -25.0911 -10.3951 -10.3951 -10.2695 -10.2695 -10.1910 -10.1910
    -5.7864  -5.7864  -5.1752  -5.1752  -1.4946  -1.4946  -0.8886  -0.8886
    -0.7164  -0.7164  -0.5447  -0.5447  -0.2594  -0.2594  -0.0724  -0.0724

          k =-0.5000 0.2438 0.3611 ( 27602 PWs)   bands (ev):

   -25.0878 -25.0878 -10.3736 -10.3736 -10.3269 -10.3269 -10.2528 -10.2528
    -5.5180  -5.5180  -5.2545  -5.2545  -1.7123  -1.7123  -1.2056  -1.2056
    -0.6230  -0.6230  -0.4458  -0.4458  -0.1725  -0.1725  -0.0351  -0.0351

          k =-0.5000 0.2438-0.7221 ( 27588 PWs)   bands (ev):

   -25.0844 -25.0844 -10.4906 -10.4906 -10.2777 -10.2777 -10.2687 -10.2687
    -5.4059  -5.4059  -5.1688  -5.1688  -2.0934  -2.0934  -1.1811  -1.1811
    -0.5865  -0.5865  -0.4135  -0.4135  -0.1266  -0.1266  -0.0075  -0.0075

          k =-0.5000-0.4875 0.0000 ( 27624 PWs)   bands (ev):

   -25.0911 -25.0911 -10.4196 -10.4196 -10.2448 -10.2448 -10.1908 -10.1908
    -5.7166  -5.7166  -5.2696  -5.2696  -1.3467  -1.3467  -1.0337  -1.0337
    -0.7959  -0.7959  -0.3570  -0.3570  -0.2317  -0.2317  -0.1638  -0.1638

          k =-0.5000-0.4875 0.3611 ( 27620 PWs)   bands (ev):

   -25.0878 -25.0878 -10.3681 -10.3681 -10.3409 -10.3409 -10.2451 -10.2451
    -5.4292  -5.4292  -5.3515  -5.3515  -1.6916  -1.6916  -1.2559  -1.2559
    -0.4930  -0.4930  -0.3530  -0.3530  -0.2251  -0.2251  -0.1502  -0.1502

          k =-0.5000-0.4875-0.7221 ( 27528 PWs)   bands (ev):

   -25.0844 -25.0844 -10.4784 -10.4784 -10.2877 -10.2877 -10.2730 -10.2730
    -5.4397  -5.4397  -5.1322  -5.1322  -1.9720  -1.9720  -1.4164  -1.4164
    -0.4048  -0.4048  -0.3550  -0.3550  -0.2148  -0.2148  -0.0380  -0.0380

     highest occupied level (ev):     0.1275

!    total energy              =    -156.42400567 Ry
     estimated scf accuracy    <          6.1E-11 Ry

     The total energy is the sum of the following terms:
     one-electron contribution =     -28.69497453 Ry
     hartree contribution      =      26.98078094 Ry
     xc contribution           =     -48.47885445 Ry
     ewald contribution        =    -106.23095764 Ry

     convergence has been achieved in  10 iterations

     Forces acting on atoms (cartesian axes, Ry/au):

     atom    1 type  2   force =     0.00000000    0.00000000    0.00000651
     atom    2 type  2   force =     0.00000000    0.00000000   -0.00000651
     atom    3 type  1   force =     0.00066250    0.00349075   -0.00001735
     atom    4 type  1   force =    -0.00066250   -0.00349075   -0.00001735
     atom    5 type  1   force =     0.00066250   -0.00349075    0.00001735
     atom    6 type  1   force =    -0.00066250    0.00349075    0.00001735
     atom    7 type  3   force =     0.03284139   -0.00841490   -0.00002639
     atom    8 type  3   force =    -0.03284139    0.00841490   -0.00002639
     atom    9 type  3   force =     0.03284139    0.00841490    0.00002639
     atom   10 type  3   force =    -0.03284139   -0.00841490    0.00002639
     atom   11 type  3   force =    -0.02167911   -0.02633863    0.00001119
     atom   12 type  3   force =     0.02167911    0.02633863    0.00001119
     atom   13 type  3   force =    -0.02167911    0.02633863   -0.00001119
     atom   14 type  3   force =     0.02167911   -0.02633863   -0.00001119
     atom   15 type  3   force =    -0.00413142    0.01932799    0.02934402
     atom   16 type  3   force =     0.00413142   -0.01932799    0.02934402
     atom   17 type  3   force =    -0.00413142   -0.01932799   -0.02934402
     atom   18 type  3   force =     0.00413142    0.01932799   -0.02934402
     atom   19 type  3   force =     0.00420361   -0.01934879   -0.02934364
     atom   20 type  3   force =    -0.00420361    0.01934879   -0.02934364
     atom   21 type  3   force =     0.00420361    0.01934879    0.02934364
     atom   22 type  3   force =    -0.00420361   -0.01934879    0.02934364

     Total force =     0.139004     Total SCF correction =     0.000003


     Computing stress (Cartesian axis) and pressure

          total   stress  (Ry/bohr**3)                   (kbar)     P=      -65.53
  -0.00041585   0.00000000   0.00000000          -61.17        0.00        0.00
   0.00000000  -0.00042352   0.00000000            0.00      -62.30        0.00
   0.00000000   0.00000000  -0.00049694            0.00        0.00      -73.10

     Volume is kept fixed: isostatic pressure set to zero

     BFGS Geometry Optimization
     Energy error            =      0.0E+00 Ry
     Gradient error          =      3.3E-02 Ry/Bohr
     Cell gradient error     =      7.6E+00 kbar

     number of scf cycles    =   1
     number of bfgs steps    =   0

     enthalpy           new  =    -156.4240056713 Ry

     new trust radius        =       0.0353990865 bohr
ibrav =      8
 celldm(1) =     13.21158957
 celldm(2) =      1.02537434
 celldm(3) =      0.69099158
Input lattice vectors:
     1.00074009     0.00000000     0.00000000
     0.00000000     1.02613321     0.00000000
     0.00000000     0.00000000     0.69150298
New lattice vectors in INITIAL alat:
     1.00074009     0.00000000     0.00000000
     0.00000000     1.02613321     0.00000000
     0.00000000     0.00000000     0.69150298
New lattice vectors in NEW alat (for information only):
     1.00000000     0.00000000     0.00000000
     0.00000000     1.02537434     0.00000000
     0.00000000     0.00000000     0.69099158
Discrepancy in bohr =     0.000000    0.000000    0.000000
     new conv_thr            =            1.0E-10 Ry

     new unit-cell volume =   1633.88098 a.u.^3 (   242.11618 Ang^3 )
     density =      2.29089 g/cm^3

CELL_PARAMETERS (alat= 13.20181900)
   1.000740093   0.000000000   0.000000000
   0.000000000   1.026133208   0.000000000
   0.000000000   0.000000000   0.691502975

ATOMIC_POSITIONS (crystal)
Ba               0.5000000000        0.5000000000        0.5000998779
Ba               0.0000000000        0.0000000000        0.9999001221
B                0.6103071983        0.2394602017        0.0000637587
B                0.3896928017        0.7605397983        0.0000637587
B                0.1103071983        0.2605397983        0.4999362413
B                0.8896928017        0.7394602017        0.4999362413
H                0.4365848933        0.2915342170        0.0002280466
H                0.5634151067        0.7084657830        0.0002280466
H                0.9365848933        0.2084657830        0.4997719534
H                0.0634151067        0.7915342170        0.4997719534
H                0.7204181376        0.3816096771       -0.0000071472
H                0.2795818624        0.6183903229       -0.0000071472
H                0.2204181376        0.1183903229        0.5000071472
H                0.7795818624        0.8816096771        0.5000071472
H                0.6389369815        0.1435219313        0.7837086160
H                0.3610630185        0.8564780687        0.7837086160
H                0.1389369815        0.3564780687        0.7162913840
H                0.8610630185        0.6435219313        0.7162913840
H                0.3608512426        0.8565268423        0.2163146868
H                0.6391487574        0.1434731577        0.2163146868
H                0.8608512426        0.6434731577        0.2836853132
H                0.1391487574        0.3565268423        0.2836853132



     Writing config-only to output data dir ./pwscf.save/ :
     XML data file
     NEW-OLD atomic charge density approx. for the potential

     total cpu time spent up to now is      264.5 secs

     Self-consistent Calculation

     iteration #  1     ecut=   100.00 Ry     beta= 0.70
     Davidson diagonalization with overlap
     ethr =  1.00E-06,  avg # of iterations =  5.1

     total cpu time spent up to now is      293.2 secs

     total energy              =    -156.43887341 Ry
     estimated scf accuracy    <       0.00462329 Ry

     iteration #  2     ecut=   100.00 Ry     beta= 0.70
     Davidson diagonalization with overlap
     ethr =  9.63E-06,  avg # of iterations =  2.0

     total cpu time spent up to now is      310.3 secs

     total energy              =    -156.44028694 Ry
     estimated scf accuracy    <       0.00129769 Ry

     iteration #  3     ecut=   100.00 Ry     beta= 0.70
     Davidson diagonalization with overlap
     ethr =  2.70E-06,  avg # of iterations =  2.0

     total cpu time spent up to now is      327.5 secs

     total energy              =    -156.44045601 Ry
     estimated scf accuracy    <       0.00001844 Ry

     iteration #  4     ecut=   100.00 Ry     beta= 0.70
     Davidson diagonalization with overlap
     ethr =  3.84E-08,  avg # of iterations =  3.0

     total cpu time spent up to now is      347.4 secs

     total energy              =    -156.44046553 Ry
     estimated scf accuracy    <       0.00001236 Ry

     iteration #  5     ecut=   100.00 Ry     beta= 0.70
     Davidson diagonalization with overlap
     ethr =  2.58E-08,  avg # of iterations =  2.0

     total cpu time spent up to now is      364.5 secs

     total energy              =    -156.44046608 Ry
     estimated scf accuracy    <       0.00000105 Ry

     iteration #  6     ecut=   100.00 Ry     beta= 0.70
     Davidson diagonalization with overlap
     ethr =  2.18E-09,  avg # of iterations =  2.4

     total cpu time spent up to now is      381.9 secs

     total energy              =    -156.44046651 Ry
     estimated scf accuracy    <       0.00000026 Ry

     iteration #  7     ecut=   100.00 Ry     beta= 0.70
     Davidson diagonalization with overlap
     ethr =  5.33E-10,  avg # of iterations =  2.0

     total cpu time spent up to now is      399.0 secs

     total energy              =    -156.44046655 Ry
     estimated scf accuracy    <          7.5E-09 Ry

     iteration #  8     ecut=   100.00 Ry     beta= 0.70
     Davidson diagonalization with overlap
     ethr =  1.56E-11,  avg # of iterations =  5.2

     total cpu time spent up to now is      423.6 secs

     total energy              =    -156.44046655 Ry
     estimated scf accuracy    <          1.7E-10 Ry

     iteration #  9     ecut=   100.00 Ry     beta= 0.70
     Davidson diagonalization with overlap
     ethr =  3.49E-13,  avg # of iterations =  6.3

     total cpu time spent up to now is      452.6 secs

     total energy              =    -156.44046656 Ry
     estimated scf accuracy    <          1.1E-10 Ry

     iteration # 10     ecut=   100.00 Ry     beta= 0.70
     Davidson diagonalization with overlap
     ethr =  2.20E-13,  avg # of iterations =  2.2

     total cpu time spent up to now is      471.5 secs

     End of self-consistent calculation

          k = 0.0000 0.0000 0.0000 ( 27613 PWs)   bands (ev):

   -25.1235 -25.1194 -10.4475 -10.4025 -10.2936 -10.2749 -10.2365 -10.2018
    -6.3874  -5.5749  -5.1713  -4.9980  -2.1251  -1.3664  -1.2924  -0.9535
    -0.6501  -0.6354  -0.6312  -0.4754  -0.3463  -0.0121   0.0274   0.0600

          k = 0.0000 0.0000 0.3615 ( 27585 PWs)   bands (ev):

   -25.1195 -25.1166 -10.3931 -10.3816 -10.3642 -10.3639 -10.2847 -10.2751
    -6.0322  -5.4215  -5.2607  -5.1413  -1.8309  -1.6041  -1.1501  -1.1015
    -1.0077  -0.9227  -0.6117  -0.3744  -0.1710  -0.1510  -0.1027   0.0344

          k = 0.0000 0.0000-0.7231 ( 27522 PWs)   bands (ev):

   -25.1147 -25.1147 -10.5127 -10.5126 -10.3093 -10.3092 -10.2973 -10.2973
    -5.4748  -5.4743  -5.3203  -5.3198  -1.5940  -1.5937  -1.5681  -1.5667
    -0.6827  -0.6816  -0.6162  -0.6151  -0.1600  -0.1598  -0.1251  -0.1245

          k = 0.0000 0.2436 0.0000 ( 27625 PWs)   bands (ev):

   -25.1229 -25.1200 -10.4300 -10.3865 -10.3184 -10.2930 -10.2313 -10.2068
    -6.2404  -5.5192  -5.3733  -5.0870  -1.8435  -1.5116  -1.3755  -0.7395
    -0.7168  -0.6964  -0.4399  -0.3593  -0.2755  -0.2697  -0.0818   0.0024

          k = 0.0000 0.2436 0.3615 ( 27570 PWs)   bands (ev):

   -25.1191 -25.1170 -10.4105 -10.3825 -10.3505 -10.3495 -10.2865 -10.2857
    -5.9403  -5.4704  -5.3067  -5.1805  -1.6666  -1.6270  -1.3919  -0.9421
    -0.9058  -0.7244  -0.7125  -0.3347  -0.2276  -0.2203  -0.1133  -0.0572

          k = 0.0000 0.2436-0.7231 ( 27542 PWs)   bands (ev):

   -25.1147 -25.1146 -10.5209 -10.5208 -10.3001 -10.3001 -10.2967 -10.2966
    -5.6108  -5.6106  -5.1816  -5.1815  -1.6657  -1.6651  -1.4548  -1.4542
    -0.6178  -0.6163  -0.5887  -0.5886  -0.2829  -0.2828  -0.1309  -0.1305

          k = 0.0000-0.4873 0.0000 ( 27540 PWs)   bands (ev):

   -25.1214 -25.1214 -10.3854 -10.3854 -10.3333 -10.3333 -10.2190 -10.2190
    -5.8601  -5.8601  -5.2896  -5.2896  -1.6099  -1.6099  -0.9859  -0.9859
    -0.7859  -0.7859  -0.3542  -0.3542  -0.2537  -0.2537  -0.1180  -0.1180

          k = 0.0000-0.4873 0.3615 ( 27582 PWs)   bands (ev):

   -25.1180 -25.1180 -10.4065 -10.4065 -10.3293 -10.3293 -10.2981 -10.2981
    -5.7070  -5.7070  -5.2623  -5.2623  -1.6059  -1.6059  -1.2163  -1.2163
    -0.7128  -0.7128  -0.4569  -0.4569  -0.3104  -0.3104  -0.1251  -0.1251

          k = 0.0000-0.4873-0.7231 ( 27496 PWs)   bands (ev):

   -25.1146 -25.1146 -10.5284 -10.5284 -10.2980 -10.2980 -10.2897 -10.2897
    -5.6886  -5.6886  -5.1013  -5.1013  -1.7354  -1.7354  -1.2838  -1.2838
    -0.6356  -0.6356  -0.5355  -0.5355  -0.4436  -0.4436  -0.0985  -0.0985

          k = 0.2498 0.0000 0.0000 ( 27576 PWs)   bands (ev):

   -25.1229 -25.1200 -10.4261 -10.3907 -10.3156 -10.2994 -10.2313 -10.2068
    -6.2467  -5.6381  -5.1829  -5.1038  -1.9634  -1.2651  -1.2124  -1.0636
    -0.6446  -0.5802  -0.5223  -0.4604  -0.3778  -0.3635  -0.0302   0.0142

          k = 0.2498 0.0000 0.3615 ( 27620 PWs)   bands (ev):

   -25.1191 -25.1170 -10.4034 -10.3906 -10.3676 -10.3351 -10.2959 -10.2777
    -5.9164  -5.4392  -5.2738  -5.2350  -1.7967  -1.5757  -1.4174  -1.0013
    -0.9362  -0.7544  -0.5316  -0.4085  -0.3183  -0.1826  -0.0202  -0.0081

          k = 0.2498 0.0000-0.7231 ( 27588 PWs)   bands (ev):

   -25.1146 -25.1146 -10.5230 -10.5229 -10.3039 -10.3038 -10.2939 -10.2939
    -5.4614  -5.4610  -5.3151  -5.3149  -1.9791  -1.9787  -1.2379  -1.2374
    -0.6597  -0.6595  -0.4317  -0.4302  -0.2999  -0.2997  -0.0880  -0.0877

          k = 0.2498 0.2436 0.0000 ( 27607 PWs)   bands (ev):

   -25.1225 -25.1204 -10.4401 -10.3776 -10.3406 -10.2779 -10.2276 -10.2102
    -6.1296  -5.6083  -5.3452  -5.1546  -1.7309  -1.4596  -1.2253  -0.8218
    -0.7577  -0.7205  -0.4698  -0.3522  -0.3192  -0.2731  -0.1816  -0.0628

          k = 0.2498 0.2436 0.3615 ( 27601 PWs)   bands (ev):

   -25.1188 -25.1173 -10.4025 -10.3878 -10.3817 -10.3271 -10.2972 -10.2761
    -5.8381  -5.4385  -5.3691  -5.2472  -1.7564  -1.5246  -1.4715  -0.9976
    -0.8163  -0.6870  -0.5831  -0.4049  -0.3157  -0.2141  -0.0945  -0.0231

          k = 0.2498 0.2436-0.7231 ( 27586 PWs)   bands (ev):

   -25.1146 -25.1146 -10.5274 -10.5144 -10.3122 -10.2997 -10.2956 -10.2925
    -5.6020  -5.5052  -5.2687  -5.1711  -1.9554  -1.9049  -1.2807  -1.2423
    -0.6929  -0.6847  -0.4493  -0.4267  -0.2543  -0.2521  -0.1375  -0.0908

          k = 0.2498-0.4873 0.0000 ( 27650 PWs)   bands (ev):

   -25.1214 -25.1214 -10.4248 -10.4248 -10.2956 -10.2956 -10.2188 -10.2188
    -5.8301  -5.8301  -5.3196  -5.3196  -1.5126  -1.5126  -1.0014  -1.0014
    -0.8090  -0.8090  -0.4014  -0.4014  -0.2321  -0.2321  -0.1844  -0.1844

          k = 0.2498-0.4873 0.3615 ( 27572 PWs)   bands (ev):

   -25.1180 -25.1180 -10.4024 -10.4024 -10.3528 -10.3528 -10.2821 -10.2821
    -5.6390  -5.6390  -5.3214  -5.3214  -1.6667  -1.6667  -1.2004  -1.2004
    -0.6933  -0.6933  -0.4254  -0.4254  -0.3137  -0.3137  -0.1142  -0.1142

          k = 0.2498-0.4873-0.7231 ( 27524 PWs)   bands (ev):

   -25.1146 -25.1146 -10.5194 -10.5194 -10.3042 -10.3042 -10.2975 -10.2975
    -5.6201  -5.6201  -5.1506  -5.1506  -1.8686  -1.8686  -1.3292  -1.3292
    -0.6031  -0.6031  -0.4900  -0.4900  -0.2853  -0.2853  -0.1017  -0.1017

          k =-0.4996 0.0000 0.0000 ( 27618 PWs)   bands (ev):

   -25.1214 -25.1214 -10.3778 -10.3778 -10.3447 -10.3447 -10.2189 -10.2189
    -5.9130  -5.9130  -5.1908  -5.1908  -1.6020  -1.6020  -0.9149  -0.9149
    -0.6000  -0.6000  -0.5692  -0.5692  -0.4733  -0.4733  -0.1099  -0.1099

          k =-0.4996 0.0000 0.3615 ( 27600 PWs)   bands (ev):

   -25.1180 -25.1180 -10.4069 -10.4069 -10.3397 -10.3397 -10.2924 -10.2924
    -5.6414  -5.6414  -5.2950  -5.2950  -1.7107  -1.7107  -1.2423  -1.2423
    -0.7047  -0.7047  -0.5405  -0.5405  -0.2178  -0.2178  -0.0373  -0.0373

          k =-0.4996 0.0000-0.7231 ( 27604 PWs)   bands (ev):

   -25.1146 -25.1146 -10.5325 -10.5325 -10.3013 -10.3013 -10.2884 -10.2884
    -5.4521  -5.4521  -5.3049  -5.3049  -2.1584  -2.1584  -1.0359  -1.0359
    -0.6767  -0.6767  -0.5102  -0.5102  -0.1568  -0.1568  -0.1023  -0.1023

          k =-0.4996 0.2436 0.0000 ( 27592 PWs)   bands (ev):

   -25.1214 -25.1214 -10.4242 -10.4242 -10.2981 -10.2981 -10.2188 -10.2188
    -5.8625  -5.8625  -5.2644  -5.2644  -1.5135  -1.5135  -0.9215  -0.9215
    -0.7516  -0.7516  -0.5934  -0.5934  -0.3064  -0.3064  -0.1339  -0.1339

          k =-0.4996 0.2436 0.3615 ( 27602 PWs)   bands (ev):

   -25.1180 -25.1180 -10.4027 -10.4027 -10.3560 -10.3560 -10.2811 -10.2811
    -5.5967  -5.5967  -5.3472  -5.3472  -1.7116  -1.7116  -1.2323  -1.2323
    -0.6680  -0.6680  -0.4946  -0.4946  -0.2272  -0.2272  -0.0940  -0.0940

          k =-0.4996 0.2436-0.7231 ( 27588 PWs)   bands (ev):

   -25.1146 -25.1146 -10.5216 -10.5216 -10.3055 -10.3055 -10.2971 -10.2971
    -5.4984  -5.4984  -5.2558  -5.2558  -2.0831  -2.0831  -1.1974  -1.1974
    -0.6341  -0.6341  -0.4653  -0.4653  -0.1814  -0.1814  -0.0689  -0.0689

          k =-0.4996-0.4873 0.0000 ( 27624 PWs)   bands (ev):

   -25.1214 -25.1214 -10.4486 -10.4486 -10.2734 -10.2734 -10.2186 -10.2186
    -5.7971  -5.7971  -5.3521  -5.3521  -1.3816  -1.3816  -1.0564  -1.0564
    -0.8304  -0.8304  -0.4075  -0.4075  -0.2865  -0.2865  -0.2121  -0.2121

          k =-0.4996-0.4873 0.3615 ( 27620 PWs)   bands (ev):

   -25.1180 -25.1180 -10.3966 -10.3966 -10.3705 -10.3705 -10.2735 -10.2735
    -5.5125  -5.5125  -5.4386  -5.4386  -1.6923  -1.6923  -1.2839  -1.2839
    -0.5375  -0.5375  -0.4091  -0.4091  -0.2788  -0.2788  -0.2016  -0.2016

          k =-0.4996-0.4873-0.7231 ( 27528 PWs)   bands (ev):

   -25.1146 -25.1146 -10.5094 -10.5094 -10.3156 -10.3156 -10.3012 -10.3012
    -5.5309  -5.5309  -5.2204  -5.2204  -1.9611  -1.9611  -1.4318  -1.4318
    -0.4574  -0.4574  -0.4115  -0.4115  -0.2663  -0.2663  -0.0955  -0.0955

     highest occupied level (ev):     0.0600

!    total energy              =    -156.44046656 Ry
     estimated scf accuracy    <          1.3E-11 Ry

     The total energy is the sum of the following terms:
     one-electron contribution =     -29.69474455 Ry
     hartree contribution      =      27.48341474 Ry
     xc contribution           =     -48.60343283 Ry
     ewald contribution        =    -105.62570392 Ry

     convergence has been achieved in  10 iterations

     Forces acting on atoms (cartesian axes, Ry/au):

     atom    1 type  2   force =     0.00000000    0.00000000    0.00000500
     atom    2 type  2   force =     0.00000000    0.00000000   -0.00000500
     atom    3 type  1   force =     0.00094746    0.00385555   -0.00001075
     atom    4 type  1   force =    -0.00094746   -0.00385555   -0.00001075
     atom    5 type  1   force =     0.00094746   -0.00385555    0.00001075
     atom    6 type  1   force =    -0.00094746    0.00385555    0.00001075
     atom    7 type  3   force =     0.02284109   -0.00544910   -0.00002030
     atom    8 type  3   force =    -0.02284109    0.00544910   -0.00002030
     atom    9 type  3   force =     0.02284109    0.00544910    0.00002030
     atom   10 type  3   force =    -0.02284109   -0.00544910    0.00002030
     atom   11 type  3   force =    -0.01513943   -0.01760469    0.00000719
     atom   12 type  3   force =     0.01513943    0.01760469    0.00000719
     atom   13 type  3   force =    -0.01513943    0.01760469   -0.00000719
     atom   14 type  3   force =     0.01513943   -0.01760469   -0.00000719
     atom   15 type  3   force =    -0.00246285    0.01344872    0.01975920
     atom   16 type  3   force =     0.00246285   -0.01344872    0.01975920
     atom   17 type  3   force =    -0.00246285   -0.01344872   -0.01975920
     atom   18 type  3   force =     0.00246285    0.01344872   -0.01975920
     atom   19 type  3   force =     0.00251995   -0.01346691   -0.01976608
     atom   20 type  3   force =    -0.00251995    0.01346691   -0.01976608
     atom   21 type  3   force =     0.00251995    0.01346691    0.01976608
     atom   22 type  3   force =    -0.00251995   -0.01346691    0.01976608

     Total force =     0.095122     Total SCF correction =     0.000001


     Computing stress (Cartesian axis) and pressure

          total   stress  (Ry/bohr**3)                   (kbar)     P=      -52.99
  -0.00033613   0.00000000   0.00000000          -49.45        0.00        0.00
   0.00000000  -0.00034231   0.00000000            0.00      -50.36        0.00
   0.00000000   0.00000000  -0.00040222            0.00        0.00      -59.17

     Volume is kept fixed: isostatic pressure set to zero
     Energy error            =      1.6E-02 Ry
     Gradient error          =      2.3E-02 Ry/Bohr
     Cell gradient error     =      6.2E+00 kbar

     number of scf cycles    =   2
     number of bfgs steps    =   1

     enthalpy           old  =    -156.4240056713 Ry
     enthalpy           new  =    -156.4404665551 Ry

     CASE: enthalpy          _new < enthalpy          _old

     new trust radius        =       0.0530609393 bohr
ibrav =      8
 celldm(1) =     13.22918906
 celldm(2) =      1.02502589
 celldm(3) =      0.68847141
Input lattice vectors:
     1.00207320     0.00000000     0.00000000
     0.00000000     1.02715098     0.00000000
     0.00000000     0.00000000     0.68989875
New lattice vectors in INITIAL alat:
     1.00207320     0.00000000     0.00000000
     0.00000000     1.02715098     0.00000000
     0.00000000     0.00000000     0.68989875
New lattice vectors in NEW alat (for information only):
     1.00000000     0.00000000     0.00000000
     0.00000000     1.02502589     0.00000000
     0.00000000     0.00000000     0.68847141
Discrepancy in bohr =     0.000000    0.000000    0.000000
     new conv_thr            =            1.0E-10 Ry

     new unit-cell volume =   1633.88098 a.u.^3 (   242.11618 Ang^3 )
     density =      2.29089 g/cm^3

CELL_PARAMETERS (alat= 13.20181900)
   1.002073204   0.000000000   0.000000000
   0.000000000   1.027150982   0.000000000
   0.000000000   0.000000000   0.689898754

ATOMIC_POSITIONS (crystal)
Ba               0.5000000000        0.5000000000        0.5001010850
Ba               0.0000000000        0.0000000000        0.9998989150
B                0.6104655354        0.2400887038        0.0000611638
B                0.3895344646        0.7599112962        0.0000611638
B                0.1104655354        0.2599112962        0.4999388362
B                0.8895344646        0.7400887038        0.4999388362
H                0.4404097792        0.2906443918        0.0002231494
H                0.5595902208        0.7093556082        0.0002231494
H                0.9404097792        0.2093556082        0.4997768506
H                0.0595902208        0.7906443918        0.4997768506
H                0.7178829835        0.3787352539       -0.0000054112
H                0.2821170165        0.6212647461       -0.0000054112
H                0.2178829835        0.1212647461        0.5000054112
H                0.7821170165        0.8787352539        0.5000054112
H                0.6385242906        0.1457174300        0.7884783790
H                0.3614757094        0.8542825700        0.7884783790
H                0.1385242906        0.3542825700        0.7115216210
H                0.8614757094        0.6457174300        0.7115216210
H                0.3612734899        0.8543283767        0.2115432711
H                0.6387265101        0.1456716233        0.2115432711
H                0.8612734899        0.6456716233        0.2884567289
H                0.1387265101        0.3543283767        0.2884567289



     Writing config-only to output data dir ./pwscf.save/ :
     XML data file
     NEW-OLD atomic charge density approx. for the potential

     total cpu time spent up to now is      506.5 secs

     Self-consistent Calculation

     iteration #  1     ecut=   100.00 Ry     beta= 0.70
     Davidson diagonalization with overlap
     ethr =  1.00E-06,  avg # of iterations =  6.0

     total cpu time spent up to now is      537.5 secs

     total energy              =    -156.44897941 Ry
     estimated scf accuracy    <       0.01158298 Ry

     iteration #  2     ecut=   100.00 Ry     beta= 0.70
     Davidson diagonalization with overlap
     ethr =  2.41E-05,  avg # of iterations =  2.0

     total cpu time spent up to now is      554.7 secs

     total energy              =    -156.45260859 Ry
     estimated scf accuracy    <       0.00334151 Ry

     iteration #  3     ecut=   100.00 Ry     beta= 0.70
     Davidson diagonalization with overlap
     ethr =  6.96E-06,  avg # of iterations =  2.0

     total cpu time spent up to now is      571.9 secs

     total energy              =    -156.45304672 Ry
     estimated scf accuracy    <       0.00004841 Ry

     iteration #  4     ecut=   100.00 Ry     beta= 0.70
     Davidson diagonalization with overlap
     ethr =  1.01E-07,  avg # of iterations =  3.0

     total cpu time spent up to now is      591.8 secs

     total energy              =    -156.45307034 Ry
     estimated scf accuracy    <       0.00002759 Ry

     iteration #  5     ecut=   100.00 Ry     beta= 0.70
     Davidson diagonalization with overlap
     ethr =  5.75E-08,  avg # of iterations =  2.0

     total cpu time spent up to now is      609.0 secs

     total energy              =    -156.45307204 Ry
     estimated scf accuracy    <       0.00000191 Ry

     iteration #  6     ecut=   100.00 Ry     beta= 0.70
     Davidson diagonalization with overlap
     ethr =  3.98E-09,  avg # of iterations =  2.6

     total cpu time spent up to now is      626.5 secs

     total energy              =    -156.45307285 Ry
     estimated scf accuracy    <       0.00000055 Ry

     iteration #  7     ecut=   100.00 Ry     beta= 0.70
     Davidson diagonalization with overlap
     ethr =  1.14E-09,  avg # of iterations =  2.0

     total cpu time spent up to now is      643.7 secs

     total energy              =    -156.45307294 Ry
     estimated scf accuracy    <       0.00000001 Ry

     iteration #  8     ecut=   100.00 Ry     beta= 0.70
     Davidson diagonalization with overlap
     ethr =  2.12E-11,  avg # of iterations =  6.0

     total cpu time spent up to now is      670.7 secs

     total energy              =    -156.45307296 Ry
     estimated scf accuracy    <          4.1E-10 Ry

     iteration #  9     ecut=   100.00 Ry     beta= 0.70
     Davidson diagonalization with overlap
     ethr =  8.51E-13,  avg # of iterations =  5.0

     total cpu time spent up to now is      694.0 secs

     total energy              =    -156.45307296 Ry
     estimated scf accuracy    <          3.7E-10 Ry

     iteration # 10     ecut=   100.00 Ry     beta= 0.70
     Davidson diagonalization with overlap
     ethr =  7.80E-13,  avg # of iterations =  1.0

     total cpu time spent up to now is      707.6 secs

     total energy              =    -156.45307296 Ry
     estimated scf accuracy    <          4.1E-10 Ry

     iteration # 11     ecut=   100.00 Ry     beta= 0.70
     Davidson diagonalization with overlap
     ethr =  7.80E-13,  avg # of iterations =  3.6

     total cpu time spent up to now is      725.2 secs

     End of self-consistent calculation

          k = 0.0000 0.0000 0.0000 ( 27613 PWs)   bands (ev):

   -25.1688 -25.1647 -10.4922 -10.4464 -10.3363 -10.3176 -10.2779 -10.2439
    -6.4834  -5.7197  -5.3113  -5.1468  -2.1301  -1.3942  -1.3493  -1.0372
    -0.6947  -0.6919  -0.6786  -0.5373  -0.3991  -0.1059  -0.0740  -0.0474

          k = 0.0000 0.0000 0.3624 ( 27585 PWs)   bands (ev):

   -25.1647 -25.1618 -10.4365 -10.4265 -10.4093 -10.4073 -10.3268 -10.3177
    -6.1333  -5.5615  -5.4056  -5.2930  -1.8293  -1.6174  -1.1678  -1.1608
    -1.0580  -0.9724  -0.6777  -0.4529  -0.2602  -0.2447  -0.1865  -0.0652

          k = 0.0000 0.0000-0.7247 ( 27522 PWs)   bands (ev):

   -25.1598 -25.1598 -10.5607 -10.5606 -10.3508 -10.3508 -10.3397 -10.3397
    -5.5967  -5.5962  -5.4720  -5.4716  -1.5968  -1.5964  -1.5719  -1.5706
    -0.7556  -0.7547  -0.6906  -0.6895  -0.2438  -0.2436  -0.2210  -0.2206

          k = 0.0000 0.2434 0.0000 ( 27625 PWs)   bands (ev):

   -25.1682 -25.1653 -10.4746 -10.4308 -10.3608 -10.3357 -10.2728 -10.2488
    -6.3403  -5.6640  -5.5018  -5.2349  -1.8621  -1.5393  -1.4210  -0.7854
    -0.7831  -0.7724  -0.5060  -0.4192  -0.3598  -0.3346  -0.1743  -0.0971

          k = 0.0000 0.2434 0.3624 ( 27570 PWs)   bands (ev):

   -25.1643 -25.1622 -10.4544 -10.4273 -10.3939 -10.3938 -10.3290 -10.3281
    -6.0463  -5.6069  -5.4473  -5.3298  -1.6721  -1.6390  -1.4195  -0.9828
    -0.9575  -0.7990  -0.7699  -0.4140  -0.3163  -0.3100  -0.1996  -0.1513

          k = 0.0000 0.2434-0.7247 ( 27542 PWs)   bands (ev):

   -25.1598 -25.1598 -10.5686 -10.5685 -10.3420 -10.3420 -10.3389 -10.3389
    -5.7442  -5.7441  -5.3208  -5.3208  -1.6704  -1.6698  -1.4602  -1.4596
    -0.6903  -0.6892  -0.6651  -0.6647  -0.3636  -0.3635  -0.2271  -0.2268

          k = 0.0000-0.4868 0.0000 ( 27540 PWs)   bands (ev):

   -25.1667 -25.1667 -10.4303 -10.4303 -10.3754 -10.3754 -10.2607 -10.2607
    -5.9722  -5.9722  -5.4346  -5.4346  -1.6350  -1.6350  -1.0463  -1.0463
    -0.8348  -0.8348  -0.4478  -0.4478  -0.3153  -0.3153  -0.2057  -0.2057

          k = 0.0000-0.4868 0.3624 ( 27582 PWs)   bands (ev):

   -25.1633 -25.1633 -10.4508 -10.4508 -10.3736 -10.3736 -10.3401 -10.3401
    -5.8264  -5.8264  -5.4065  -5.4065  -1.6169  -1.6169  -1.2502  -1.2502
    -0.7765  -0.7765  -0.5244  -0.5244  -0.4030  -0.4030  -0.2139  -0.2139

          k = 0.0000-0.4868-0.7247 ( 27496 PWs)   bands (ev):

   -25.1598 -25.1598 -10.5759 -10.5759 -10.3404 -10.3404 -10.3314 -10.3314
    -5.8239  -5.8239  -5.2378  -5.2378  -1.7397  -1.7397  -1.2899  -1.2899
    -0.7166  -0.7166  -0.6024  -0.6024  -0.5250  -0.5250  -0.1971  -0.1971

          k = 0.2495 0.0000 0.0000 ( 27576 PWs)   bands (ev):

   -25.1682 -25.1653 -10.4708 -10.4347 -10.3582 -10.3419 -10.2728 -10.2488
    -6.3475  -5.7744  -5.3245  -5.2494  -1.9732  -1.3000  -1.2598  -1.1289
    -0.6856  -0.6452  -0.5760  -0.5358  -0.4443  -0.4370  -0.1302  -0.0930

          k = 0.2495 0.0000 0.3624 ( 27620 PWs)   bands (ev):

   -25.1643 -25.1622 -10.4477 -10.4351 -10.4114 -10.3792 -10.3378 -10.3204
    -6.0223  -5.5744  -5.4193  -5.3833  -1.7906  -1.6008  -1.4260  -1.0531
    -1.0012  -0.8103  -0.6069  -0.4874  -0.3956  -0.2657  -0.1202  -0.0998

          k = 0.2495 0.0000-0.7247 ( 27588 PWs)   bands (ev):

   -25.1598 -25.1598 -10.5708 -10.5707 -10.3453 -10.3453 -10.3365 -10.3365
    -5.5972  -5.5968  -5.4541  -5.4539  -1.9703  -1.9699  -1.2570  -1.2566
    -0.7369  -0.7366  -0.5050  -0.5036  -0.3821  -0.3819  -0.1818  -0.1816

          k = 0.2495 0.2434 0.0000 ( 27607 PWs)   bands (ev):

   -25.1678 -25.1657 -10.4843 -10.4226 -10.3824 -10.3207 -10.2692 -10.2522
    -6.2347  -5.7446  -5.4779  -5.2972  -1.7547  -1.4948  -1.2731  -0.8847
    -0.8040  -0.7716  -0.5510  -0.4126  -0.4052  -0.3356  -0.2775  -0.1563

          k = 0.2495 0.2434 0.3624 ( 27601 PWs)   bands (ev):

   -25.1640 -25.1625 -10.4470 -10.4309 -10.4262 -10.3717 -10.3392 -10.3186
    -5.9486  -5.5761  -5.5055  -5.3936  -1.7565  -1.5365  -1.4984  -1.0481
    -0.8783  -0.7470  -0.6558  -0.4792  -0.4004  -0.3015  -0.1841  -0.1153

          k = 0.2495 0.2434-0.7247 ( 27586 PWs)   bands (ev):

   -25.1598 -25.1598 -10.5752 -10.5621 -10.3538 -10.3418 -10.3381 -10.3343
    -5.7398  -5.6407  -5.4078  -5.3073  -1.9479  -1.8965  -1.3012  -1.2606
    -0.7681  -0.7604  -0.5166  -0.5017  -0.3439  -0.3388  -0.2225  -0.1917

          k = 0.2495-0.4868 0.0000 ( 27650 PWs)   bands (ev):

   -25.1667 -25.1667 -10.4688 -10.4688 -10.3384 -10.3384 -10.2606 -10.2606
    -5.9485  -5.9485  -5.4564  -5.4564  -1.5476  -1.5476  -1.0602  -1.0602
    -0.8560  -0.8560  -0.4822  -0.4822  -0.2958  -0.2958  -0.2757  -0.2757

          k = 0.2495-0.4868 0.3624 ( 27572 PWs)   bands (ev):

   -25.1632 -25.1632 -10.4463 -10.4463 -10.3970 -10.3970 -10.3245 -10.3245
    -5.7619  -5.7619  -5.4620  -5.4620  -1.6735  -1.6735  -1.2426  -1.2426
    -0.7539  -0.7539  -0.5003  -0.5003  -0.4004  -0.4004  -0.2022  -0.2022

          k = 0.2495-0.4868-0.7247 ( 27524 PWs)   bands (ev):

   -25.1598 -25.1598 -10.5671 -10.5671 -10.3461 -10.3461 -10.3396 -10.3396
    -5.7574  -5.7574  -5.2872  -5.2872  -1.8618  -1.8618  -1.3494  -1.3494
    -0.6786  -0.6786  -0.5613  -0.5613  -0.3719  -0.3719  -0.1963  -0.1963

          k =-0.4990 0.0000 0.0000 ( 27618 PWs)   bands (ev):

   -25.1667 -25.1667 -10.4231 -10.4231 -10.3863 -10.3863 -10.2607 -10.2607
    -6.0281  -6.0281  -5.3355  -5.3355  -1.6240  -1.6240  -0.9685  -0.9685
    -0.6526  -0.6526  -0.6438  -0.6438  -0.5386  -0.5386  -0.2120  -0.2120

          k =-0.4990 0.0000 0.3624 ( 27600 PWs)   bands (ev):

   -25.1632 -25.1632 -10.4514 -10.4514 -10.3832 -10.3832 -10.3349 -10.3349
    -5.7602  -5.7602  -5.4423  -5.4423  -1.7096  -1.7096  -1.2822  -1.2822
    -0.7744  -0.7744  -0.6132  -0.6132  -0.2965  -0.2965  -0.1346  -0.1346

          k =-0.4990 0.0000-0.7247 ( 27604 PWs)   bands (ev):

   -25.1598 -25.1598 -10.5802 -10.5802 -10.3428 -10.3428 -10.3309 -10.3309
    -5.6000  -5.6000  -5.4329  -5.4329  -2.1446  -2.1446  -1.0609  -1.0609
    -0.7534  -0.7534  -0.5856  -0.5856  -0.2355  -0.2355  -0.2011  -0.2011

          k =-0.4990 0.2434 0.0000 ( 27592 PWs)   bands (ev):

   -25.1667 -25.1667 -10.4681 -10.4681 -10.3409 -10.3409 -10.2606 -10.2606
    -5.9819  -5.9819  -5.4014  -5.4014  -1.5478  -1.5478  -0.9751  -0.9751
    -0.7982  -0.7982  -0.6706  -0.6706  -0.3697  -0.3697  -0.2318  -0.2318

          k =-0.4990 0.2434 0.3624 ( 27602 PWs)   bands (ev):

   -25.1632 -25.1632 -10.4467 -10.4467 -10.3999 -10.3999 -10.3236 -10.3236
    -5.7190  -5.7190  -5.4896  -5.4896  -1.7138  -1.7138  -1.2735  -1.2735
    -0.7389  -0.7389  -0.5663  -0.5663  -0.3082  -0.3082  -0.1858  -0.1858

          k =-0.4990 0.2434-0.7247 ( 27588 PWs)   bands (ev):

   -25.1597 -25.1597 -10.5694 -10.5694 -10.3468 -10.3468 -10.3397 -10.3397
    -5.6410  -5.6410  -5.3891  -5.3891  -2.0700  -2.0700  -1.2219  -1.2219
    -0.7104  -0.7104  -0.5417  -0.5417  -0.2672  -0.2672  -0.1616  -0.1616

          k =-0.4990-0.4868 0.0000 ( 27624 PWs)   bands (ev):

   -25.1667 -25.1667 -10.4924 -10.4924 -10.3163 -10.3163 -10.2604 -10.2604
    -5.9235  -5.9235  -5.4792  -5.4792  -1.4360  -1.4360  -1.0989  -1.0989
    -0.8757  -0.8757  -0.4914  -0.4914  -0.3702  -0.3702  -0.2776  -0.2776

          k =-0.4990-0.4868 0.3624 ( 27620 PWs)   bands (ev):

   -25.1632 -25.1632 -10.4393 -10.4393 -10.4157 -10.4157 -10.3160 -10.3160
    -5.6421  -5.6421  -5.5725  -5.5725  -1.6966  -1.6966  -1.3266  -1.3266
    -0.6038  -0.6038  -0.4959  -0.4959  -0.3635  -0.3635  -0.2768  -0.2768

          k =-0.4990-0.4868-0.7247 ( 27528 PWs)   bands (ev):

   -25.1597 -25.1597 -10.5574 -10.5574 -10.3572 -10.3572 -10.3432 -10.3432
    -5.6711  -5.6711  -5.3560  -5.3560  -1.9481  -1.9481  -1.4542  -1.4542
    -0.5345  -0.5345  -0.4990  -0.4990  -0.3514  -0.3514  -0.1803  -0.1803

     highest occupied level (ev):    -0.0474

!    total energy              =    -156.45307296 Ry
     estimated scf accuracy    <          6.3E-11 Ry

     The total energy is the sum of the following terms:
     one-electron contribution =     -31.29085898 Ry
     hartree contribution      =      28.28811348 Ry
     xc contribution           =     -48.79818954 Ry
     ewald contribution        =    -104.65213792 Ry

     convergence has been achieved in  11 iterations

     Forces acting on atoms (cartesian axes, Ry/au):

     atom    1 type  2   force =     0.00000000    0.00000000    0.00000313
     atom    2 type  2   force =     0.00000000    0.00000000   -0.00000313
     atom    3 type  1   force =     0.00078990    0.00302999   -0.00000701
     atom    4 type  1   force =    -0.00078990   -0.00302999   -0.00000701
     atom    5 type  1   force =     0.00078990   -0.00302999    0.00000701
     atom    6 type  1   force =    -0.00078990    0.00302999    0.00000701
     atom    7 type  3   force =     0.00607778   -0.00044788   -0.00001016
     atom    8 type  3   force =    -0.00607778    0.00044788   -0.00001016
     atom    9 type  3   force =     0.00607778    0.00044788    0.00001016
     atom   10 type  3   force =    -0.00607778   -0.00044788    0.00001016
     atom   11 type  3   force =    -0.00352177   -0.00215590    0.00000100
     atom   12 type  3   force =     0.00352177    0.00215590    0.00000100
     atom   13 type  3   force =    -0.00352177    0.00215590   -0.00000100
     atom   14 type  3   force =     0.00352177   -0.00215590   -0.00000100
     atom   15 type  3   force =     0.00031477    0.00384987    0.00400663
     atom   16 type  3   force =    -0.00031477   -0.00384987    0.00400663
     atom   17 type  3   force =     0.00031477   -0.00384987   -0.00400663
     atom   18 type  3   force =    -0.00031477    0.00384987   -0.00400663
     atom   19 type  3   force =    -0.00028347   -0.00386011   -0.00401895
     atom   20 type  3   force =     0.00028347    0.00386011   -0.00401895
     atom   21 type  3   force =    -0.00028347    0.00386011    0.00401895
     atom   22 type  3   force =     0.00028347   -0.00386011    0.00401895

     Total force =     0.022459     Total SCF correction =     0.000001


     Computing stress (Cartesian axis) and pressure

          total   stress  (Ry/bohr**3)                   (kbar)     P=      -32.53
  -0.00020404   0.00000000   0.00000000          -30.02        0.00        0.00
   0.00000000  -0.00020796   0.00000000            0.00      -30.59        0.00
   0.00000000   0.00000000  -0.00025147            0.00        0.00      -36.99

     Volume is kept fixed: isostatic pressure set to zero
     Energy error            =      1.3E-02 Ry
     Gradient error          =      6.1E-03 Ry/Bohr
     Cell gradient error     =      4.5E+00 kbar

     number of scf cycles    =   3
     number of bfgs steps    =   2

     enthalpy           old  =    -156.4404665551 Ry
     enthalpy           new  =    -156.4530729566 Ry

     CASE: enthalpy          _new < enthalpy          _old

     new trust radius        =       0.0167115993 bohr
ibrav =      8
 celldm(1) =     13.23953464
 celldm(2) =      1.02483796
 celldm(3) =      0.68698468
Input lattice vectors:
     1.00285685     0.00000000     0.00000000
     0.00000000     1.02776577     0.00000000
     0.00000000     0.00000000     0.68894730
New lattice vectors in INITIAL alat:
     1.00285685     0.00000000     0.00000000
     0.00000000     1.02776577     0.00000000
     0.00000000     0.00000000     0.68894730
New lattice vectors in NEW alat (for information only):
     1.00000000     0.00000000     0.00000000
     0.00000000     1.02483796     0.00000000
     0.00000000     0.00000000     0.68698468
Discrepancy in bohr =     0.000000    0.000000    0.000000
     new conv_thr            =            1.0E-10 Ry

     new unit-cell volume =   1633.88098 a.u.^3 (   242.11618 Ang^3 )
     density =      2.29089 g/cm^3

CELL_PARAMETERS (alat= 13.20181900)
   1.002856852   0.000000000   0.000000000
   0.000000000   1.027765768   0.000000000
   0.000000000   0.000000000   0.688947297

ATOMIC_POSITIONS (crystal)
Ba               0.5000000000        0.5000000000        0.5001017324
Ba               0.0000000000        0.0000000000        0.9998982676
B                0.6105697959        0.2404850307        0.0000597305
B                0.3894302041        0.7595149693        0.0000597305
B                0.1105697959        0.2595149693        0.4999402695
B                0.8894302041        0.7404850307        0.4999402695
H                0.4416572260        0.2904501514        0.0002208831
H                0.5583427740        0.7095498486        0.0002208831
H                0.9416572260        0.2095498486        0.4997791169
H                0.0583427740        0.7904501514        0.4997791169
H                0.7171061361        0.3780402004       -0.0000049739
H                0.2828938639        0.6219597996       -0.0000049739
H                0.2171061361        0.1219597996        0.5000049739
H                0.7828938639        0.8780402004        0.5000049739
H                0.6384849677        0.1464593991        0.7898549953
H                0.3615150323        0.8535406009        0.7898549953
H                0.1384849677        0.3535406009        0.7101450047
H                0.8615150323        0.6464593991        0.7101450047
H                0.3613175115        0.8535849246        0.2101646406
H                0.6386824885        0.1464150754        0.2101646406
H                0.8613175115        0.6464150754        0.2898353594
H                0.1386824885        0.3535849246        0.2898353594



     Writing config-only to output data dir ./pwscf.save/ :
     XML data file
     NEW-OLD atomic charge density approx. for the potential

     total cpu time spent up to now is      760.4 secs

     Self-consistent Calculation

     iteration #  1     ecut=   100.00 Ry     beta= 0.70
     Davidson diagonalization with overlap
     ethr =  1.00E-06,  avg # of iterations =  4.0

     total cpu time spent up to now is      785.4 secs

     total energy              =    -156.45350784 Ry
     estimated scf accuracy    <       0.00101444 Ry

     iteration #  2     ecut=   100.00 Ry     beta= 0.70
     Davidson diagonalization with overlap
     ethr =  2.11E-06,  avg # of iterations =  2.0

     total cpu time spent up to now is      802.6 secs

     total energy              =    -156.45380587 Ry
     estimated scf accuracy    <       0.00023723 Ry

     iteration #  3     ecut=   100.00 Ry     beta= 0.70
     Davidson diagonalization with overlap
     ethr =  4.94E-07,  avg # of iterations =  2.0

     total cpu time spent up to now is      819.8 secs

     total energy              =    -156.45383742 Ry
     estimated scf accuracy    <       0.00000351 Ry

     iteration #  4     ecut=   100.00 Ry     beta= 0.70
     Davidson diagonalization with overlap
     ethr =  7.32E-09,  avg # of iterations =  3.0

     total cpu time spent up to now is      839.8 secs

     total energy              =    -156.45383921 Ry
     estimated scf accuracy    <       0.00000218 Ry

     iteration #  5     ecut=   100.00 Ry     beta= 0.70
     Davidson diagonalization with overlap
     ethr =  4.54E-09,  avg # of iterations =  2.0

     total cpu time spent up to now is      857.0 secs

     total energy              =    -156.45383944 Ry
     estimated scf accuracy    <       0.00000009 Ry

     iteration #  6     ecut=   100.00 Ry     beta= 0.70
     Davidson diagonalization with overlap
     ethr =  1.89E-10,  avg # of iterations =  3.4

     total cpu time spent up to now is      876.8 secs

     total energy              =    -156.45383949 Ry
     estimated scf accuracy    <       0.00000003 Ry

     iteration #  7     ecut=   100.00 Ry     beta= 0.70
     Davidson diagonalization with overlap
     ethr =  6.55E-11,  avg # of iterations =  3.5

     total cpu time spent up to now is      894.8 secs

     total energy              =    -156.45383949 Ry
     estimated scf accuracy    <          5.5E-10 Ry

     iteration #  8     ecut=   100.00 Ry     beta= 0.70
     Davidson diagonalization with overlap
     ethr =  1.15E-12,  avg # of iterations =  7.2

     total cpu time spent up to now is      929.1 secs

     End of self-consistent calculation

          k = 0.0000 0.0000 0.0000 ( 27613 PWs)   bands (ev):

   -25.1808 -25.1768 -10.5048 -10.4587 -10.3480 -10.3293 -10.2889 -10.2553
    -6.5136  -5.7643  -5.3543  -5.1930  -2.1362  -1.4055  -1.3688  -1.0661
    -0.7092  -0.6983  -0.6979  -0.5520  -0.4088  -0.1366  -0.1076  -0.0848

          k = 0.0000 0.0000 0.3629 ( 27585 PWs)   bands (ev):

   -25.1767 -25.1738 -10.4483 -10.4397 -10.4228 -10.4190 -10.3382 -10.3293
    -6.1637  -5.6033  -5.4508  -5.3405  -1.8315  -1.6239  -1.1808  -1.1759
    -1.0726  -0.9837  -0.6964  -0.4754  -0.2910  -0.2754  -0.2112  -0.0987

          k = 0.0000 0.0000-0.7257 ( 27522 PWs)   bands (ev):

   -25.1717 -25.1717 -10.5757 -10.5757 -10.3618 -10.3618 -10.3511 -10.3511
    -5.6319  -5.6315  -5.5199  -5.5196  -1.5963  -1.5959  -1.5757  -1.5744
    -0.7783  -0.7774  -0.7148  -0.7136  -0.2724  -0.2723  -0.2507  -0.2504

          k = 0.0000 0.2432 0.0000 ( 27625 PWs)   bands (ev):

   -25.1802 -25.1774 -10.4872 -10.4433 -10.3724 -10.3474 -10.2839 -10.2601
    -6.3717  -5.7094  -5.5406  -5.2806  -1.8724  -1.5510  -1.4374  -0.8130
    -0.7933  -0.7841  -0.5319  -0.4325  -0.3917  -0.3468  -0.2046  -0.1304

          k = 0.0000 0.2432 0.3629 ( 27570 PWs)   bands (ev):

   -25.1763 -25.1742 -10.4669 -10.4404 -10.4066 -10.4057 -10.3406 -10.3395
    -6.0783  -5.6481  -5.4907  -5.3762  -1.6763  -1.6451  -1.4306  -0.9933
    -0.9718  -0.8225  -0.7863  -0.4374  -0.3451  -0.3409  -0.2256  -0.1824

          k = 0.0000 0.2432-0.7257 ( 27542 PWs)   bands (ev):

   -25.1717 -25.1717 -10.5835 -10.5835 -10.3532 -10.3532 -10.3502 -10.3502
    -5.7846  -5.7846  -5.3633  -5.3632  -1.6739  -1.6733  -1.4608  -1.4603
    -0.7138  -0.7129  -0.6896  -0.6890  -0.3879  -0.3878  -0.2599  -0.2596

          k = 0.0000-0.4865 0.0000 ( 27540 PWs)   bands (ev):

   -25.1788 -25.1788 -10.4430 -10.4430 -10.3868 -10.3868 -10.2719 -10.2719
    -6.0077  -6.0077  -5.4787  -5.4787  -1.6463  -1.6463  -1.0688  -1.0688
    -0.8441  -0.8441  -0.4798  -0.4798  -0.3288  -0.3288  -0.2359  -0.2359

          k = 0.0000-0.4865 0.3629 ( 27582 PWs)   bands (ev):

   -25.1752 -25.1752 -10.4635 -10.4635 -10.3859 -10.3859 -10.3516 -10.3516
    -5.8627  -5.8627  -5.4509  -5.4509  -1.6228  -1.6228  -1.2616  -1.2616
    -0.7950  -0.7950  -0.5432  -0.5432  -0.4346  -0.4346  -0.2421  -0.2421

          k = 0.0000-0.4865-0.7257 ( 27496 PWs)   bands (ev):

   -25.1717 -25.1717 -10.5907 -10.5907 -10.3518 -10.3518 -10.3427 -10.3427
    -5.8650  -5.8650  -5.2792  -5.2792  -1.7432  -1.7432  -1.2902  -1.2902
    -0.7433  -0.7433  -0.6241  -0.6241  -0.5503  -0.5503  -0.2298  -0.2298

          k = 0.2493 0.0000 0.0000 ( 27576 PWs)   bands (ev):

   -25.1802 -25.1773 -10.4834 -10.4470 -10.3699 -10.3536 -10.2839 -10.2601
    -6.3793  -5.8169  -5.3680  -5.2941  -1.9808  -1.3130  -1.2791  -1.1512
    -0.6915  -0.6604  -0.5877  -0.5636  -0.4706  -0.4491  -0.1637  -0.1303

          k = 0.2493 0.0000 0.3629 ( 27620 PWs)   bands (ev):

   -25.1763 -25.1742 -10.4604 -10.4478 -10.4237 -10.3915 -10.3491 -10.3321
    -6.0544  -5.6152  -5.4644  -5.4293  -1.7905  -1.6105  -1.4296  -1.0694
    -1.0224  -0.8254  -0.6297  -0.5136  -0.4173  -0.2919  -0.1540  -0.1287

          k = 0.2493 0.0000-0.7257 ( 27588 PWs)   bands (ev):

   -25.1717 -25.1717 -10.5857 -10.5856 -10.3563 -10.3563 -10.3480 -10.3480
    -5.6389  -5.6386  -5.4959  -5.4956  -1.9682  -1.9678  -1.2632  -1.2628
    -0.7613  -0.7610  -0.5285  -0.5271  -0.4098  -0.4096  -0.2114  -0.2112

          k = 0.2493 0.2432 0.0000 ( 27607 PWs)   bands (ev):

   -25.1798 -25.1778 -10.4966 -10.4353 -10.3937 -10.3325 -10.2803 -10.2635
    -6.2680  -5.7878  -5.5180  -5.3410  -1.7666  -1.5086  -1.2908  -0.9075
    -0.8124  -0.7815  -0.5792  -0.4357  -0.4259  -0.3490  -0.3095  -0.1886

          k = 0.2493 0.2432 0.3629 ( 27601 PWs)   bands (ev):

   -25.1760 -25.1745 -10.4598 -10.4428 -10.4391 -10.3841 -10.3507 -10.3301
    -5.9821  -5.6177  -5.5477  -5.4390  -1.7580  -1.5424  -1.5081  -1.0638
    -0.8989  -0.7631  -0.6775  -0.5017  -0.4291  -0.3287  -0.2123  -0.1450

          k = 0.2493 0.2432-0.7257 ( 27586 PWs)   bands (ev):

   -25.1717 -25.1717 -10.5901 -10.5771 -10.3648 -10.3531 -10.3496 -10.3455
    -5.7820  -5.6821  -5.4499  -5.3483  -1.9466  -1.8946  -1.3074  -1.2661
    -0.7933  -0.7851  -0.5366  -0.5249  -0.3766  -0.3657  -0.2472  -0.2263

          k = 0.2493-0.4865 0.0000 ( 27650 PWs)   bands (ev):

   -25.1788 -25.1788 -10.4811 -10.4811 -10.3501 -10.3501 -10.2718 -10.2718
    -5.9863  -5.9863  -5.4978  -5.4978  -1.5619  -1.5619  -1.0819  -1.0819
    -0.8646  -0.8646  -0.5107  -0.5107  -0.3099  -0.3099  -0.3065  -0.3065

          k = 0.2493-0.4865 0.3629 ( 27572 PWs)   bands (ev):

   -25.1752 -25.1752 -10.4587 -10.4587 -10.4095 -10.4095 -10.3361 -10.3361
    -5.7994  -5.7994  -5.5053  -5.5053  -1.6770  -1.6770  -1.2571  -1.2571
    -0.7716  -0.7716  -0.5228  -0.5228  -0.4294  -0.4294  -0.2295  -0.2295

          k = 0.2493-0.4865-0.7257 ( 27524 PWs)   bands (ev):

   -25.1717 -25.1717 -10.5820 -10.5820 -10.3573 -10.3573 -10.3508 -10.3508
    -5.7993  -5.7993  -5.3284  -5.3284  -1.8611  -1.8611  -1.3549  -1.3549
    -0.7034  -0.7034  -0.5839  -0.5839  -0.4002  -0.4002  -0.2267  -0.2267

          k =-0.4986 0.0000 0.0000 ( 27618 PWs)   bands (ev):

   -25.1788 -25.1788 -10.4359 -10.4359 -10.3975 -10.3975 -10.2719 -10.2719
    -6.0646  -6.0646  -5.3795  -5.3795  -1.6356  -1.6356  -0.9864  -0.9864
    -0.6810  -0.6810  -0.6513  -0.6513  -0.5534  -0.5534  -0.2476  -0.2476

          k =-0.4986 0.0000 0.3629 ( 27600 PWs)   bands (ev):

   -25.1752 -25.1752 -10.4641 -10.4641 -10.3952 -10.3952 -10.3466 -10.3466
    -5.7967  -5.7967  -5.4876  -5.4876  -1.7099  -1.7099  -1.2965  -1.2965
    -0.7954  -0.7954  -0.6364  -0.6364  -0.3193  -0.3193  -0.1666  -0.1666

          k =-0.4986 0.0000-0.7257 ( 27604 PWs)   bands (ev):

   -25.1717 -25.1717 -10.5950 -10.5950 -10.3539 -10.3539 -10.3424 -10.3424
    -5.6463  -5.6463  -5.4706  -5.4706  -2.1407  -2.1407  -1.0689  -1.0689
    -0.7779  -0.7779  -0.6104  -0.6104  -0.2597  -0.2597  -0.2341  -0.2341

          k =-0.4986 0.2432 0.0000 ( 27592 PWs)   bands (ev):

   -25.1788 -25.1788 -10.4804 -10.4804 -10.3526 -10.3526 -10.2718 -10.2718
    -6.0200  -6.0200  -5.4431  -5.4431  -1.5626  -1.5626  -0.9944  -0.9944
    -0.8067  -0.8067  -0.6968  -0.6968  -0.3837  -0.3837  -0.2658  -0.2658

          k =-0.4986 0.2432 0.3629 ( 27602 PWs)   bands (ev):

   -25.1752 -25.1752 -10.4591 -10.4591 -10.4124 -10.4124 -10.3352 -10.3352
    -5.7566  -5.7566  -5.5333  -5.5333  -1.7152  -1.7152  -1.2878  -1.2878
    -0.7614  -0.7614  -0.5882  -0.5882  -0.3322  -0.3322  -0.2158  -0.2158

          k =-0.4986 0.2432-0.7257 ( 27588 PWs)   bands (ev):

   -25.1717 -25.1717 -10.5843 -10.5843 -10.3578 -10.3578 -10.3511 -10.3511
    -5.6852  -5.6852  -5.4287  -5.4287  -2.0665  -2.0665  -1.2293  -1.2293
    -0.7360  -0.7360  -0.5654  -0.5654  -0.2969  -0.2969  -0.1899  -0.1899

          k =-0.4986-0.4865 0.0000 ( 27624 PWs)   bands (ev):

   -25.1788 -25.1788 -10.5045 -10.5045 -10.3281 -10.3281 -10.2716 -10.2716
    -5.9639  -5.9639  -5.5176  -5.5176  -1.4560  -1.4560  -1.1154  -1.1154
    -0.8838  -0.8838  -0.5215  -0.5215  -0.3983  -0.3983  -0.2923  -0.2923

          k =-0.4986-0.4865 0.3629 ( 27620 PWs)   bands (ev):

   -25.1752 -25.1752 -10.4510 -10.4510 -10.4291 -10.4291 -10.3275 -10.3275
    -5.6822  -5.6822  -5.6134  -5.6134  -1.6987  -1.6987  -1.3409  -1.3409
    -0.6239  -0.6239  -0.5239  -0.5239  -0.3915  -0.3915  -0.2990  -0.2990

          k =-0.4986-0.4865-0.7257 ( 27528 PWs)   bands (ev):

   -25.1717 -25.1717 -10.5725 -10.5725 -10.3682 -10.3682 -10.3545 -10.3545
    -5.7144  -5.7144  -5.3966  -5.3966  -1.9451  -1.9451  -1.4606  -1.4606
    -0.5579  -0.5579  -0.5284  -0.5284  -0.3816  -0.3816  -0.2055  -0.2055

     highest occupied level (ev):    -0.0848

!    total energy              =    -156.45383949 Ry
     estimated scf accuracy    <          4.7E-11 Ry

     The total energy is the sum of the following terms:
     one-electron contribution =     -31.81833428 Ry
     hartree contribution      =      28.55432216 Ry
     xc contribution           =     -48.85837738 Ry
     ewald contribution        =    -104.33145000 Ry

     convergence has been achieved in   8 iterations

     Forces acting on atoms (cartesian axes, Ry/au):

     atom    1 type  2   force =     0.00000000    0.00000000    0.00000234
     atom    2 type  2   force =     0.00000000    0.00000000   -0.00000234
     atom    3 type  1   force =     0.00078837    0.00214744   -0.00000766
     atom    4 type  1   force =    -0.00078837   -0.00214744   -0.00000766
     atom    5 type  1   force =     0.00078837   -0.00214744    0.00000766
     atom    6 type  1   force =    -0.00078837    0.00214744    0.00000766
     atom    7 type  3   force =     0.00057574    0.00118564   -0.00000743
     atom    8 type  3   force =    -0.00057574   -0.00118564   -0.00000743
     atom    9 type  3   force =     0.00057574   -0.00118564    0.00000743
     atom   10 type  3   force =    -0.00057574    0.00118564    0.00000743
     atom   11 type  3   force =     0.00033843    0.00295403   -0.00000097
     atom   12 type  3   force =    -0.00033843   -0.00295403   -0.00000097
     atom   13 type  3   force =     0.00033843   -0.00295403    0.00000097
     atom   14 type  3   force =    -0.00033843    0.00295403    0.00000097
     atom   15 type  3   force =     0.00117370    0.00095319   -0.00104552
     atom   16 type  3   force =    -0.00117370   -0.00095319   -0.00104552
     atom   17 type  3   force =     0.00117370   -0.00095319    0.00104552
     atom   18 type  3   force =    -0.00117370    0.00095319    0.00104552
     atom   19 type  3   force =    -0.00115170   -0.00095897    0.00103406
     atom   20 type  3   force =     0.00115170    0.00095897    0.00103406
     atom   21 type  3   force =    -0.00115170    0.00095897   -0.00103406
     atom   22 type  3   force =     0.00115170   -0.00095897   -0.00103406

     Total force =     0.009488     Total SCF correction =     0.000002


     Computing stress (Cartesian axis) and pressure

          total   stress  (Ry/bohr**3)                   (kbar)     P=      -26.00
  -0.00016148   0.00000000   0.00000000          -23.76        0.00        0.00
   0.00000000  -0.00016606   0.00000000            0.00      -24.43        0.00
   0.00000000   0.00000000  -0.00020277            0.00        0.00      -29.83

     Volume is kept fixed: isostatic pressure set to zero
     Energy error            =      7.7E-04 Ry
     Gradient error          =      3.0E-03 Ry/Bohr
     Cell gradient error     =      3.8E+00 kbar

     number of scf cycles    =   4
     number of bfgs steps    =   3

     enthalpy           old  =    -156.4530729566 Ry
     enthalpy           new  =    -156.4538394948 Ry

     CASE: enthalpy          _new < enthalpy          _old

     new trust radius        =       0.0060045393 bohr
ibrav =      8
 celldm(1) =     13.24525794
 celldm(2) =      1.02471010
 celldm(3) =      0.68618013
Input lattice vectors:
     1.00329038     0.00000000     0.00000000
     0.00000000     1.02808179     0.00000000
     0.00000000     0.00000000     0.68843792
New lattice vectors in INITIAL alat:
     1.00329038     0.00000000     0.00000000
     0.00000000     1.02808179     0.00000000
     0.00000000     0.00000000     0.68843792
New lattice vectors in NEW alat (for information only):
     1.00000000     0.00000000     0.00000000
     0.00000000     1.02471010     0.00000000
     0.00000000     0.00000000     0.68618013
Discrepancy in bohr =     0.000000    0.000000    0.000000
     new conv_thr            =            7.7E-11 Ry

     new unit-cell volume =   1633.88098 a.u.^3 (   242.11618 Ang^3 )
     density =      2.29089 g/cm^3

CELL_PARAMETERS (alat= 13.20181900)
   1.003290376   0.000000000   0.000000000
   0.000000000   1.028081786   0.000000000
   0.000000000   0.000000000   0.688437920

ATOMIC_POSITIONS (crystal)
Ba               0.5000000000        0.5000000000        0.5001020266
Ba               0.0000000000        0.0000000000        0.9998979734
B                0.6106360868        0.2406682000        0.0000588042
B                0.3893639132        0.7593318000        0.0000588042
B                0.1106360868        0.2593318000        0.4999411958
B                0.8893639132        0.7406682000        0.4999411958
H                0.4417697414        0.2905287063        0.0002199382
H                0.5582302586        0.7094712937        0.0002199382
H                0.9417697414        0.2094712937        0.4997800618
H                0.0582302586        0.7905287063        0.4997800618
H                0.7170900033        0.3782245630       -0.0000050575
H                0.2829099967        0.6217754370       -0.0000050575
H                0.2170900033        0.1217754370        0.5000050575
H                0.7829099967        0.8782245630        0.5000050575
H                0.6385734253        0.1465714306        0.7898145295
H                0.3614265747        0.8534285694        0.7898145295
H                0.1385734253        0.3534285694        0.7101854705
H                0.8614265747        0.6465714306        0.7101854705
H                0.3612310086        0.8534723767        0.2102037299
H                0.6387689914        0.1465276233        0.2102037299
H                0.8612310086        0.6465276233        0.2897962701
H                0.1387689914        0.3534723767        0.2897962701



     Writing config-only to output data dir ./pwscf.save/ :
     XML data file
     NEW-OLD atomic charge density approx. for the potential

     total cpu time spent up to now is      964.2 secs

     Self-consistent Calculation

     iteration #  1     ecut=   100.00 Ry     beta= 0.70
     Davidson diagonalization with overlap
     ethr =  1.00E-06,  avg # of iterations =  2.0

     Threshold (ethr) on eigenvalues was too large:
     Diagonalizing with lowered threshold

     Davidson diagonalization with overlap
     ethr =  1.16E-08,  avg # of iterations =  3.4

     total cpu time spent up to now is     1001.0 secs

     total energy              =    -156.45397027 Ry
     estimated scf accuracy    <       0.00000796 Ry

     iteration #  2     ecut=   100.00 Ry     beta= 0.70
     Davidson diagonalization with overlap
     ethr =  1.66E-08,  avg # of iterations =  2.0

     total cpu time spent up to now is     1018.1 secs

     total energy              =    -156.45397177 Ry
     estimated scf accuracy    <       0.00000047 Ry

     iteration #  3     ecut=   100.00 Ry     beta= 0.70
     Davidson diagonalization with overlap
     ethr =  9.89E-10,  avg # of iterations =  2.0

     total cpu time spent up to now is     1034.8 secs

     total energy              =    -156.45397184 Ry
     estimated scf accuracy    <       0.00000002 Ry

     iteration #  4     ecut=   100.00 Ry     beta= 0.70
     Davidson diagonalization with overlap
     ethr =  4.62E-11,  avg # of iterations =  4.7

     total cpu time spent up to now is     1055.6 secs

     total energy              =    -156.45397185 Ry
     estimated scf accuracy    <          2.1E-09 Ry

     iteration #  5     ecut=   100.00 Ry     beta= 0.70
     Davidson diagonalization with overlap
     ethr =  4.42E-12,  avg # of iterations =  5.4

     total cpu time spent up to now is     1080.4 secs

     total energy              =    -156.45397185 Ry
     estimated scf accuracy    <          1.5E-10 Ry

     iteration #  6     ecut=   100.00 Ry     beta= 0.70
     Davidson diagonalization with overlap
     ethr =  3.10E-13,  avg # of iterations =  4.3

     total cpu time spent up to now is     1101.5 secs

     End of self-consistent calculation

          k = 0.0000 0.0000 0.0000 ( 27613 PWs)   bands (ev):

   -25.1792 -25.1751 -10.5039 -10.4577 -10.3470 -10.3281 -10.2874 -10.2538
    -6.5144  -5.7654  -5.3553  -5.1944  -2.1399  -1.4075  -1.3704  -1.0701
    -0.7067  -0.7032  -0.6931  -0.5499  -0.4045  -0.1393  -0.1096  -0.0898

          k = 0.0000 0.0000 0.3631 ( 27585 PWs)   bands (ev):

   -25.1750 -25.1721 -10.4471 -10.4393 -10.4225 -10.4178 -10.3369 -10.3279
    -6.1633  -5.6030  -5.4524  -5.3424  -1.8333  -1.6258  -1.1821  -1.1781
    -1.0724  -0.9816  -0.6967  -0.4754  -0.2952  -0.2769  -0.2116  -0.1027

          k = 0.0000 0.0000-0.7263 ( 27522 PWs)   bands (ev):

   -25.1700 -25.1700 -10.5764 -10.5763 -10.3603 -10.3602 -10.3497 -10.3497
    -5.6303  -5.6299  -5.5224  -5.5220  -1.5954  -1.5950  -1.5777  -1.5764
    -0.7792  -0.7783  -0.7159  -0.7147  -0.2766  -0.2766  -0.2523  -0.2521

          k = 0.0000 0.2432 0.0000 ( 27625 PWs)   bands (ev):

   -25.1786 -25.1757 -10.4863 -10.4423 -10.3713 -10.3462 -10.2824 -10.2586
    -6.3726  -5.7114  -5.5406  -5.2818  -1.8766  -1.5534  -1.4390  -0.8169
    -0.7892  -0.7808  -0.5365  -0.4298  -0.3962  -0.3432  -0.2072  -0.1326

          k = 0.0000 0.2432 0.3631 ( 27570 PWs)   bands (ev):

   -25.1746 -25.1726 -10.4661 -10.4399 -10.4058 -10.4045 -10.3395 -10.3382
    -6.0780  -5.6481  -5.4919  -5.3779  -1.6782  -1.6469  -1.4323  -0.9924
    -0.9715  -0.8243  -0.7860  -0.4378  -0.3471  -0.3452  -0.2262  -0.1849

          k = 0.0000 0.2432-0.7263 ( 27542 PWs)   bands (ev):

[...]
        14        H      tau(  14) = (   0.8245798   0.9690701   0.3276009  )
        15        H      tau(  15) = (   0.7337233   0.2041159   0.5089459  )
        16        H      tau(  16) = (   0.3132662   0.8309817   0.5089459  )
        17        H      tau(  17) = (   0.2102285   0.3134329   0.4739029  )
        18        H      tau(  18) = (   0.8367610   0.7216648   0.4739029  )
        19        H      tau(  19) = (   0.3132430   0.8309754   0.1463099  )
        20        H      tau(  20) = (   0.7337465   0.2041223   0.1463099  )
        21        H      tau(  21) = (   0.8367377   0.7216711   0.1813063  )
        22        H      tau(  22) = (   0.2102518   0.3134266   0.1813063  )

     number of k points=    27
                       cart. coord. in units 2pi/alat
        k(    1) = (   0.0000000   0.0000000   0.0000000), wk =   0.0312500
        k(    2) = (   0.0000000   0.0000000   0.3815439), wk =   0.0625000
        k(    3) = (   0.0000000   0.0000000  -0.7630879), wk =   0.0312500
        k(    4) = (   0.0000000   0.2415231   0.0000000), wk =   0.0625000
        k(    5) = (   0.0000000   0.2415231   0.3815439), wk =   0.1250000
        k(    6) = (   0.0000000   0.2415231  -0.7630879), wk =   0.0625000
        k(    7) = (   0.0000000  -0.4830462   0.0000000), wk =   0.0312500
        k(    8) = (   0.0000000  -0.4830462   0.3815439), wk =   0.0625000
        k(    9) = (   0.0000000  -0.4830462  -0.7630879), wk =   0.0312500
        k(   10) = (   0.2387798   0.0000000   0.0000000), wk =   0.0625000
        k(   11) = (   0.2387798   0.0000000   0.3815439), wk =   0.1250000
        k(   12) = (   0.2387798   0.0000000  -0.7630879), wk =   0.0625000
        k(   13) = (   0.2387798   0.2415231   0.0000000), wk =   0.1250000
        k(   14) = (   0.2387798   0.2415231   0.3815439), wk =   0.2500000
        k(   15) = (   0.2387798   0.2415231  -0.7630879), wk =   0.1250000
        k(   16) = (   0.2387798  -0.4830462   0.0000000), wk =   0.0625000
        k(   17) = (   0.2387798  -0.4830462   0.3815439), wk =   0.1250000
        k(   18) = (   0.2387798  -0.4830462  -0.7630879), wk =   0.0625000
        k(   19) = (  -0.4775597   0.0000000   0.0000000), wk =   0.0312500
        k(   20) = (  -0.4775597   0.0000000   0.3815439), wk =   0.0625000
        k(   21) = (  -0.4775597   0.0000000  -0.7630879), wk =   0.0312500
        k(   22) = (  -0.4775597   0.2415231   0.0000000), wk =   0.0625000
        k(   23) = (  -0.4775597   0.2415231   0.3815439), wk =   0.1250000
        k(   24) = (  -0.4775597   0.2415231  -0.7630879), wk =   0.0625000
        k(   25) = (  -0.4775597  -0.4830462   0.0000000), wk =   0.0312500
        k(   26) = (  -0.4775597  -0.4830462   0.3815439), wk =   0.0625000
        k(   27) = (  -0.4775597  -0.4830462  -0.7630879), wk =   0.0312500

     Dense  grid:   624371 G-vectors     FFT dimensions: ( 128, 128,  80)

     Smooth grid:   220763 G-vectors     FFT dimensions: (  90,  90,  60)

     Estimated max dynamical RAM per process >      99.80 MB

     Estimated total dynamical RAM >       2.34 GB

     Initial potential from superposition of free atoms

     starting charge      47.9682, renormalised to      48.0000
     Starting wfcs are   42 randomized atomic wfcs

     total cpu time spent up to now is    13225.3 secs

     Self-consistent Calculation

     iteration #  1     ecut=   100.00 Ry     beta= 0.70
     Davidson diagonalization with overlap
     ethr =  1.00E-06,  avg # of iterations = 11.3

     total cpu time spent up to now is    13280.0 secs

     total energy              =    -155.81657215 Ry
     estimated scf accuracy    <       2.32986801 Ry

     iteration #  2     ecut=   100.00 Ry     beta= 0.70
     Davidson diagonalization with overlap
     ethr =  4.85E-03,  avg # of iterations =  2.0

     total cpu time spent up to now is    13297.4 secs

     total energy              =    -156.38852933 Ry
     estimated scf accuracy    <       0.47683319 Ry

     iteration #  3     ecut=   100.00 Ry     beta= 0.70
     Davidson diagonalization with overlap
     ethr =  9.93E-04,  avg # of iterations =  2.0

     total cpu time spent up to now is    13314.7 secs

     total energy              =    -156.46428339 Ry
     estimated scf accuracy    <       0.00571905 Ry

     iteration #  4     ecut=   100.00 Ry     beta= 0.70
     Davidson diagonalization with overlap
     ethr =  1.19E-05,  avg # of iterations =  3.4

     total cpu time spent up to now is    13336.3 secs

     total energy              =    -156.46649417 Ry
     estimated scf accuracy    <       0.00233442 Ry

     iteration #  5     ecut=   100.00 Ry     beta= 0.70
     Davidson diagonalization with overlap
     ethr =  4.86E-06,  avg # of iterations =  3.4

     total cpu time spent up to now is    13354.5 secs

     total energy              =    -156.46716302 Ry
     estimated scf accuracy    <       0.00007113 Ry

     iteration #  6     ecut=   100.00 Ry     beta= 0.70
     Davidson diagonalization with overlap
     ethr =  1.48E-07,  avg # of iterations =  5.5

     total cpu time spent up to now is    13380.9 secs

     total energy              =    -156.46725711 Ry
     estimated scf accuracy    <       0.00001561 Ry

     iteration #  7     ecut=   100.00 Ry     beta= 0.70
     Davidson diagonalization with overlap
     ethr =  3.25E-08,  avg # of iterations =  3.7

     total cpu time spent up to now is    13399.8 secs

     total energy              =    -156.46726191 Ry
     estimated scf accuracy    <       0.00000014 Ry

     iteration #  8     ecut=   100.00 Ry     beta= 0.70
     Davidson diagonalization with overlap
     ethr =  2.83E-10,  avg # of iterations =  7.0

     total cpu time spent up to now is    13433.1 secs

     total energy              =    -156.46726232 Ry
     estimated scf accuracy    <       0.00000003 Ry

     iteration #  9     ecut=   100.00 Ry     beta= 0.70
     Davidson diagonalization with overlap
     ethr =  6.53E-11,  avg # of iterations =  3.1

     total cpu time spent up to now is    13451.4 secs

     total energy              =    -156.46726233 Ry
     estimated scf accuracy    <          4.2E-10 Ry

     iteration # 10     ecut=   100.00 Ry     beta= 0.70
     Davidson diagonalization with overlap
     ethr =  8.70E-13,  avg # of iterations =  7.7

     total cpu time spent up to now is    13488.4 secs

     total energy              =    -156.46726233 Ry
     estimated scf accuracy    <          2.7E-10 Ry

     iteration # 11     ecut=   100.00 Ry     beta= 0.70
     Davidson diagonalization with overlap
     ethr =  5.66E-13,  avg # of iterations =  2.3

     total cpu time spent up to now is    13507.1 secs

     total energy              =    -156.46726233 Ry
     estimated scf accuracy    <          7.8E-12 Ry

     iteration # 12     ecut=   100.00 Ry     beta= 0.70
     Davidson diagonalization with overlap
     ethr =  1.00E-13,  avg # of iterations =  3.3

     total cpu time spent up to now is    13523.2 secs

     End of self-consistent calculation

          k = 0.0000 0.0000 0.0000 ( 27547 PWs)   bands (ev):

   -24.8760 -24.8714 -10.3628 -10.3402 -10.1339 -10.1140 -10.0376  -9.9953
    -6.7246  -5.9369  -5.4216  -5.3922  -2.5156  -1.4858  -1.3759  -1.2777
    -1.1822  -0.9954  -0.9747  -0.7034  -0.4710  -0.3094  -0.1927  -0.1717

          k = 0.0000 0.0000 0.3815 ( 27560 PWs)   bands (ev):

   -24.8678 -24.8645 -10.3133 -10.2980 -10.2733 -10.2571 -10.1147 -10.1011
    -6.2175  -5.6205  -5.6064  -5.5863  -2.0802  -1.9717  -1.8527  -1.1969
    -1.1604  -1.1311  -0.8130  -0.5713  -0.4588  -0.4070  -0.3899  -0.3152

          k = 0.0000 0.0000-0.7631 ( 27588 PWs)   bands (ev):

   -24.8586 -24.8586 -10.5509 -10.5509 -10.1378 -10.1378 -10.1274 -10.1273
    -5.7961  -5.7961  -5.5250  -5.5249  -2.1310  -2.1306  -1.8353  -1.8353
    -0.8526  -0.8524  -0.7509  -0.7506  -0.5101  -0.5101  -0.3869  -0.3865

          k = 0.0000 0.2415 0.0000 ( 27559 PWs)   bands (ev):

   -24.8753 -24.8721 -10.3416 -10.3190 -10.1622 -10.1408 -10.0314 -10.0015
    -6.5885  -5.9778  -5.5303  -5.4416  -2.3032  -1.6939  -1.4319  -1.0001
    -0.9832  -0.9603  -0.9563  -0.6948  -0.5302  -0.5226  -0.3098  -0.2716

          k = 0.0000 0.2415 0.3815 ( 27548 PWs)   bands (ev):

   -24.8673 -24.8650 -10.3310 -10.3122 -10.2395 -10.2391 -10.1220 -10.1162
    -6.1358  -5.7131  -5.6133  -5.5968  -2.0099  -1.9901  -1.8270  -1.2097
    -1.1010  -0.9827  -0.8823  -0.6013  -0.4880  -0.4174  -0.4107  -0.3974

          k = 0.0000 0.2415-0.7631 ( 27584 PWs)   bands (ev):

   -24.8586 -24.8586 -10.5573 -10.5573 -10.1355 -10.1355 -10.1204 -10.1204
    -5.9105  -5.9105  -5.4016  -5.4015  -2.2784  -2.2782  -1.6538  -1.6537
    -0.8413  -0.8411  -0.6916  -0.6915  -0.5453  -0.5450  -0.4511  -0.4510

          k = 0.0000-0.4830 0.0000 ( 27572 PWs)   bands (ev):

   -24.8737 -24.8737 -10.3008 -10.3008 -10.1872 -10.1872 -10.0164 -10.0164
    -6.2555  -6.2555  -5.5419  -5.5419  -1.9661  -1.9661  -1.1136  -1.1136
    -0.9590  -0.9590  -0.7120  -0.7120  -0.6295  -0.6295  -0.4512  -0.4512

          k = 0.0000-0.4830 0.3815 ( 27600 PWs)   bands (ev):

   -24.8661 -24.8661 -10.3322 -10.3322 -10.2140 -10.2140 -10.1351 -10.1351
    -5.9312  -5.9312  -5.6123  -5.6123  -2.0090  -2.0090  -1.5166  -1.5166
    -0.9287  -0.9287  -0.7221  -0.7221  -0.5667  -0.5667  -0.4002  -0.4002

          k = 0.0000-0.4830-0.7631 ( 27608 PWs)   bands (ev):

   -24.8586 -24.8586 -10.5634 -10.5634 -10.1346 -10.1346 -10.1123 -10.1123
    -5.9856  -5.9856  -5.3172  -5.3172  -2.3754  -2.3754  -1.4932  -1.4932
    -0.8350  -0.8350  -0.6807  -0.6807  -0.6389  -0.6389  -0.4310  -0.4310

          k = 0.2388 0.0000 0.0000 ( 27604 PWs)   bands (ev):

   -24.8753 -24.8721 -10.3384 -10.3210 -10.1597 -10.1448 -10.0314 -10.0015
    -6.5929  -5.9999  -5.4814  -5.4541  -2.3144  -1.5744  -1.3812  -1.2223
    -0.9596  -0.9567  -0.9213  -0.7118  -0.5366  -0.4735  -0.3859  -0.2759

          k = 0.2388 0.0000 0.3815 ( 27601 PWs)   bands (ev):

   -24.8673 -24.8650 -10.3293 -10.3128 -10.2531 -10.2276 -10.1280 -10.1101
    -6.1288  -5.6828  -5.6266  -5.6159  -2.0391  -1.9046  -1.8844  -1.2130
    -1.0698  -1.0242  -0.8656  -0.6213  -0.5352  -0.4114  -0.3880  -0.3770

          k = 0.2388 0.0000-0.7631 ( 27596 PWs)   bands (ev):

   -24.8586 -24.8586 -10.5580 -10.5580 -10.1373 -10.1373 -10.1186 -10.1186
    -5.8824  -5.8824  -5.4268  -5.4267  -2.3370  -2.3369  -1.6000  -1.5999
    -0.8171  -0.8169  -0.7251  -0.7250  -0.5461  -0.5460  -0.4265  -0.4260

          k = 0.2388 0.2415 0.0000 ( 27600 PWs)   bands (ev):

   -24.8748 -24.8725 -10.3594 -10.2983 -10.1897 -10.1192 -10.0270 -10.0058
    -6.5092  -6.0700  -5.5453  -5.4353  -2.1680  -1.6956  -1.4295  -1.0453
    -1.0047  -0.9433  -0.7668  -0.7009  -0.6798  -0.5383  -0.4747  -0.2367

          k = 0.2388 0.2415 0.3815 ( 27586 PWs)   bands (ev):

   -24.8670 -24.8653 -10.3274 -10.3113 -10.2710 -10.2132 -10.1350 -10.1045
    -6.0661  -5.7535  -5.6355  -5.6133  -2.0230  -1.9585  -1.8004  -1.3151
    -1.0305  -0.9447  -0.8260  -0.6047  -0.5878  -0.4463  -0.4020  -0.3431

          k = 0.2388 0.2415-0.7631 ( 27590 PWs)   bands (ev):

   -24.8586 -24.8586 -10.5621 -10.5520 -10.1376 -10.1364 -10.1283 -10.1120
    -5.9645  -5.8191  -5.4910  -5.3365  -2.4146  -2.2170  -1.8140  -1.5481
    -0.8417  -0.7321  -0.6460  -0.6407  -0.5691  -0.5613  -0.4939  -0.3635

          k = 0.2388-0.4830 0.0000 ( 27574 PWs)   bands (ev):

   -24.8737 -24.8737 -10.3392 -10.3392 -10.1454 -10.1454 -10.0164 -10.0164
    -6.2921  -6.2921  -5.5029  -5.5029  -1.9107  -1.9107  -1.2172  -1.2172
    -0.9936  -0.9936  -0.7219  -0.7219  -0.5903  -0.5903  -0.3940  -0.3940

          k = 0.2388-0.4830 0.3815 ( 27588 PWs)   bands (ev):

   -24.8661 -24.8661 -10.3226 -10.3226 -10.2435 -10.2435 -10.1158 -10.1158
    -5.9127  -5.9127  -5.6286  -5.6286  -2.0057  -2.0057  -1.5741  -1.5741
    -0.9418  -0.9418  -0.7084  -0.7084  -0.4597  -0.4597  -0.4256  -0.4256

          k = 0.2388-0.4830-0.7631 ( 27604 PWs)   bands (ev):

   -24.8586 -24.8586 -10.5563 -10.5563 -10.1363 -10.1363 -10.1219 -10.1219
    -5.9222  -5.9222  -5.3796  -5.3796  -2.3341  -2.3341  -1.7160  -1.7160
    -0.7664  -0.7664  -0.6196  -0.6196  -0.5444  -0.5444  -0.4102  -0.4102

          k =-0.4776 0.0000 0.0000 ( 27636 PWs)   bands (ev):

   -24.8737 -24.8737 -10.2979 -10.2979 -10.1905 -10.1905 -10.0165 -10.0165
    -6.2746  -6.2746  -5.5135  -5.5135  -1.9319  -1.9319  -1.0110  -1.0110
    -0.9275  -0.9275  -0.8853  -0.8853  -0.6648  -0.6648  -0.4663  -0.4663

          k =-0.4776 0.0000 0.3815 ( 27598 PWs)   bands (ev):

   -24.8661 -24.8661 -10.3318 -10.3318 -10.2178 -10.2178 -10.1326 -10.1326
    -5.9097  -5.9097  -5.6290  -5.6290  -1.9963  -1.9963  -1.5369  -1.5369
    -0.8928  -0.8928  -0.7986  -0.7986  -0.5236  -0.5236  -0.4114  -0.4114

          k =-0.4776 0.0000-0.7631 ( 27580 PWs)   bands (ev):

   -24.8586 -24.8586 -10.5648 -10.5648 -10.1369 -10.1369 -10.1101 -10.1101
    -5.9419  -5.9419  -5.3550  -5.3550  -2.4618  -2.4618  -1.4167  -1.4167
    -0.8440  -0.8440  -0.7063  -0.7063  -0.5608  -0.5608  -0.4450  -0.4450

          k =-0.4776 0.2415 0.0000 ( 27588 PWs)   bands (ev):

   -24.8737 -24.8737 -10.3384 -10.3384 -10.1464 -10.1464 -10.0164 -10.0164
    -6.3008  -6.3008  -5.4896  -5.4896  -1.8927  -1.8927  -1.1863  -1.1863
    -0.9818  -0.9818  -0.7970  -0.7970  -0.6039  -0.6039  -0.3933  -0.3933

          k =-0.4776 0.2415 0.3815 ( 27614 PWs)   bands (ev):

   -24.8661 -24.8661 -10.3223 -10.3223 -10.2451 -10.2451 -10.1150 -10.1150
    -5.9011  -5.9011  -5.6377  -5.6377  -1.9977  -1.9977  -1.5910  -1.5910
    -0.9152  -0.9152  -0.7338  -0.7338  -0.4722  -0.4722  -0.4144  -0.4144

          k =-0.4776 0.2415-0.7631 ( 27604 PWs)   bands (ev):

   -24.8586 -24.8586 -10.5571 -10.5571 -10.1381 -10.1381 -10.1201 -10.1201
    -5.8959  -5.8959  -5.4029  -5.4029  -2.3923  -2.3923  -1.6576  -1.6576
    -0.7683  -0.7683  -0.6649  -0.6649  -0.5192  -0.5192  -0.3775  -0.3775

          k =-0.4776-0.4830 0.0000 ( 27640 PWs)   bands (ev):

   -24.8737 -24.8737 -10.3655 -10.3655 -10.1158 -10.1158 -10.0163 -10.0163
    -6.3256  -6.3256  -5.4670  -5.4670  -1.8409  -1.8409  -1.3277  -1.3277
    -1.0225  -1.0225  -0.7248  -0.7248  -0.5567  -0.5567  -0.3515  -0.3515

          k =-0.4776-0.4830 0.3815 ( 27572 PWs)   bands (ev):

   -24.8661 -24.8661 -10.3042 -10.3042 -10.2760 -10.2760 -10.1024 -10.1024
    -5.8921  -5.8921  -5.6468  -5.6468  -1.9982  -1.9982  -1.6416  -1.6416
    -0.9292  -0.9292  -0.6452  -0.6452  -0.5156  -0.5156  -0.3583  -0.3583

          k =-0.4776-0.4830-0.7631 ( 27592 PWs)   bands (ev):

   -24.8586 -24.8586 -10.5490 -10.5490 -10.1393 -10.1393 -10.1305 -10.1305
    -5.8390  -5.8390  -5.4618  -5.4618  -2.2705  -2.2705  -1.9052  -1.9052
    -0.7511  -0.7511  -0.5851  -0.5851  -0.4905  -0.4905  -0.3236  -0.3236

     highest occupied level (ev):    -0.1717

!    total energy              =    -156.46726233 Ry
     estimated scf accuracy    <          2.7E-13 Ry

     The total energy is the sum of the following terms:
     one-electron contribution =     -40.83122574 Ry
     hartree contribution      =      33.10780499 Ry
     xc contribution           =     -49.07024426 Ry
     ewald contribution        =     -99.67359732 Ry

     convergence has been achieved in  12 iterations

     Forces acting on atoms (cartesian axes, Ry/au):

     atom    1 type  2   force =     0.00000000    0.00000000   -0.00000287
     atom    2 type  2   force =     0.00000000    0.00000000    0.00000287
     atom    3 type  1   force =    -0.00000332    0.00000499   -0.00000245
     atom    4 type  1   force =     0.00000332   -0.00000499   -0.00000245
     atom    5 type  1   force =    -0.00000332   -0.00000499    0.00000245
     atom    6 type  1   force =     0.00000332    0.00000499    0.00000245
     atom    7 type  3   force =     0.00000207   -0.00000091    0.00000751
     atom    8 type  3   force =    -0.00000207    0.00000091    0.00000751
     atom    9 type  3   force =     0.00000207    0.00000091   -0.00000751
     atom   10 type  3   force =    -0.00000207   -0.00000091   -0.00000751
     atom   11 type  3   force =     0.00000027   -0.00000055   -0.00000773
     atom   12 type  3   force =    -0.00000027    0.00000055   -0.00000773
     atom   13 type  3   force =     0.00000027    0.00000055    0.00000773
     atom   14 type  3   force =    -0.00000027   -0.00000055    0.00000773
     atom   15 type  3   force =     0.00000790    0.00000063   -0.00000167
     atom   16 type  3   force =    -0.00000790   -0.00000063   -0.00000167
     atom   17 type  3   force =     0.00000790   -0.00000063    0.00000167
     atom   18 type  3   force =    -0.00000790    0.00000063    0.00000167
     atom   19 type  3   force =     0.00000685    0.00000501   -0.00000085
     atom   20 type  3   force =    -0.00000685   -0.00000501   -0.00000085
     atom   21 type  3   force =     0.00000685   -0.00000501    0.00000085
     atom   22 type  3   force =    -0.00000685    0.00000501    0.00000085

     Total force =     0.000035     Total SCF correction =     0.000000


     Computing stress (Cartesian axis) and pressure

          total   stress  (Ry/bohr**3)                   (kbar)     P=       -5.02
  -0.00003408   0.00000000   0.00000000           -5.01        0.00        0.00
   0.00000000  -0.00003413   0.00000000            0.00       -5.02        0.00
   0.00000000   0.00000000  -0.00003420            0.00        0.00       -5.03


     Writing all to output data dir ./pwscf.save/ :
     XML data file, charge density, pseudopotentials, collected wavefunctions

     init_run     :     21.32s CPU     23.27s WALL (       2 calls)
     electrons    :  11038.23s CPU  11125.03s WALL (      69 calls)
     update_pot   :     17.54s CPU     19.44s WALL (      67 calls)
     forces       :    266.26s CPU    269.22s WALL (      69 calls)
     stress       :   2092.76s CPU   2099.01s WALL (      69 calls)

     Called by init_run:
     wfcinit      :     16.61s CPU     16.71s WALL (       2 calls)
     potinit      :      0.78s CPU      1.27s WALL (       2 calls)
     hinit0       :      1.92s CPU      3.19s WALL (       2 calls)

     Called by electrons:
     c_bands      :   9715.50s CPU   9780.37s WALL (     538 calls)
     sum_band     :   1129.88s CPU   1142.19s WALL (     538 calls)
     v_of_rho     :     81.58s CPU     85.27s WALL (     576 calls)
     newd         :    113.89s CPU    116.00s WALL (     576 calls)
     mix_rho      :      8.97s CPU      9.94s WALL (     538 calls)

     Called by c_bands:
     init_us_2    :    227.45s CPU    230.19s WALL (   32832 calls)
     cegterg      :   8681.41s CPU   8742.48s WALL (   14526 calls)

     Called by *egterg:
     cdiaghg      :    114.72s CPU    115.53s WALL (   64683 calls)
     h_psi        :   5928.71s CPU   5977.65s WALL (   67383 calls)
     s_psi        :   1176.02s CPU   1180.87s WALL (   67383 calls)
     g_psi        :     23.69s CPU     23.82s WALL (   52803 calls)

     Called by h_psi:
     h_psi:calbec :   1082.50s CPU   1088.00s WALL (   67383 calls)
     vloc_psi     :   3650.29s CPU   3689.03s WALL (   67383 calls)
     add_vuspsi   :   1177.43s CPU   1182.32s WALL (   67383 calls)

     General routines
     calbec       :   2046.57s CPU   2055.07s WALL (   91224 calls)
     fft          :     59.08s CPU     66.58s WALL (    9173 calls)
     ffts         :      3.23s CPU      3.94s WALL (    1114 calls)
     fftw         :   3412.77s CPU   3447.75s WALL ( 2644896 calls)
     interpolate  :      6.36s CPU      7.36s WALL (     576 calls)

     Parallel routines

     PWSCF        :      3h44m CPU      3h45m WALL


   This run was terminated on:  18:28:27   6Aug2024            

=------------------------------------------------------------------------------=
   JOB DONE.
=------------------------------------------------------------------------------=
