
     Program PWSCF v.7.3.1 starts on  6Aug2024 at 14:42:28 

     This program is part of the open-source Quantum ESPRESSO suite
     for quantum simulation of materials; please cite
         "P. Giannozzi et al., J. Phys.:Condens. Matter 21 395502 (2009);
         "P. Giannozzi et al., J. Phys.:Condens. Matter 29 465901 (2017);
         "P. Giannozzi et al., J. Chem. Phys. 152 154105 (2020);
          URL http://www.quantum-espresso.org", 
     in publications or presentations arising from this work. More details at
     http://www.quantum-espresso.org/quote

     Parallel version (MPI), running on    24 processors

     MPI processes distributed on     1 nodes
     93690 MiB available memory on the printing compute node when the environment starts

     Waiting for input...
     Reading input from standard input

     Current dimensions of program PWSCF are:
     Max number of different atomic species (ntypx) = 10
     Max number of k-points (npk) =  40000
     Max angular momentum in pseudopotentials (lmaxx) =  4

     R & G space division:  proc/nbgrp/npool/nimage =      24
     Subspace diagonalization in iterative solution of the eigenvalue problem:
     a serial algorithm will be used


     Parallelization info
     --------------------
     sticks:   dense  smooth     PW     G-vecs:    dense   smooth      PW
     Min         466     232     63                25336     8954    1287
     Max         467     233     65                25338     8955    1288
     Sum       11185    5587   1539               608097   214915   30905

     Using Slab Decomposition


     Title: 
     volume variation                                                           


     bravais-lattice index     =            8
     lattice parameter (alat)  =      13.0855  a.u.
     unit-cell volume          =    1591.0719 (a.u.)^3
     number of atoms/cell      =           22
     number of atomic types    =            3
     number of electrons       =        48.00
     number of Kohn-Sham states=           24
     kinetic-energy cutoff     =     100.0000  Ry
     charge density cutoff     =     800.0000  Ry
     scf convergence threshold =      1.0E-10
     mixing beta               =       0.7000
     number of iterations used =            8  plain     mixing
     energy convergence thresh.=      1.0E-05
     force convergence thresh. =      1.0E-05
     press convergence thresh. =      5.0E-01
     Exchange-correlation= PBESOL
                           (   1   4  10   8   0   0   0)
     nstep                     =          300


     celldm(1)=  13.085497  celldm(2)=   1.025571  celldm(3)=   0.692394
     celldm(4)=   0.000000  celldm(5)=   0.000000  celldm(6)=   0.000000

     crystal axes: (cart. coord. in units of alat)
               a(1) = (   1.000000   0.000000   0.000000 )  
               a(2) = (   0.000000   1.025571   0.000000 )  
               a(3) = (   0.000000   0.000000   0.692394 )  

     reciprocal axes: (cart. coord. in units 2 pi/alat)
               b(1) = (  1.000000  0.000000  0.000000 )  
               b(2) = (  0.000000  0.975067  0.000000 )  
               b(3) = (  0.000000  0.000000  1.444264 )  


     PseudoPot. # 1 for B  read from file:
     /home/mehlhorn/pseudos/b_pbesol_v1.4.uspp.F.UPF
     MD5 check sum: 369b69bef2c3aeed4453bd8b804fd6a8
     Pseudo is Ultrasoft + core correction, Zval =  3.0
     Generated by new atomic code, or converted to UPF format
     Using radial grid of  781 points,  4 beta functions with: 
                l(1) =   0
                l(2) =   0
                l(3) =   1
                l(4) =   1
     Q(r) pseudized with  8 coefficients,  rinner =    1.100   1.100   1.100


     PseudoPot. # 2 for Ba read from file:
     /home/mehlhorn/pseudos/Ba.nc.z_10.oncvpsp4.dojo.v4-sp.upf
     MD5 check sum: c10ed334bb677c0554edec7181ce9143
     Pseudo is Norm-conserving + core correction, Zval = 10.0
     Generated using ONCVPSP code by D. R. Hamann
     Using radial grid of 1938 points,  8 beta functions with: 
                l(1) =   0
                l(2) =   0
                l(3) =   1
                l(4) =   1
                l(5) =   2
                l(6) =   2
                l(7) =   3
                l(8) =   3

     PseudoPot. # 3 for H  read from file:
     /home/mehlhorn/pseudos/H_ONCV_PBEsol-1.0.upf
     MD5 check sum: 398ef8f67c0a7342c05c87c5e19ea467
     Pseudo is Norm-conserving, Zval =  1.0
     Generated using ONCVPSP code by D. R. Hamann
     Using radial grid of 1180 points,  2 beta functions with: 
                l(1) =   0
                l(2) =   0

     atomic species   valence    mass     pseudopotential
     B                 3.00    10.81100     B ( 1.00)
     Ba               10.00   137.32700     Ba( 1.00)
     H                 1.00     1.00794     H ( 1.00)

      4 Sym. Ops. (no inversion) found ( 2 have fractional translation)



   Cartesian axes

     site n.     atom                  positions (alat units)
         1        Ba     tau(   1) = (   0.5000000   0.5127855   0.3462657  )
         2        Ba     tau(   2) = (   0.0000000   0.0000000   0.6923255  )
         3        B      tau(   3) = (   0.6102570   0.2453190   0.0000455  )
         4        B      tau(   4) = (   0.3897430   0.7802519   0.0000455  )
         5        B      tau(   5) = (   0.1102570   0.2674665   0.3461516  )
         6        B      tau(   6) = (   0.8897430   0.7581045   0.3461516  )
         7        H      tau(   7) = (   0.4340973   0.2996264   0.0001599  )
         8        H      tau(   8) = (   0.5659027   0.7259445   0.0001599  )
         9        H      tau(   9) = (   0.9340973   0.2131590   0.3460372  )
        10        H      tau(  10) = (   0.0659027   0.8124119   0.3460372  )
        11        H      tau(  11) = (   0.7220603   0.3933629  -0.0000058  )
        12        H      tau(  12) = (   0.2779397   0.6322081  -0.0000058  )
        13        H      tau(  13) = (   0.2220603   0.1194226   0.3462029  )
        14        H      tau(  14) = (   0.7779397   0.9061483   0.3462029  )
        15        H      tau(  15) = (   0.6392499   0.1457279   0.5404125  )
        16        H      tau(  16) = (   0.3607501   0.8798430   0.5404125  )
        17        H      tau(  17) = (   0.1392499   0.3670576   0.4981787  )
        18        H      tau(  18) = (   0.8607501   0.6585133   0.4981787  )
        19        H      tau(  19) = (   0.3605328   0.8798946   0.1519977  )
        20        H      tau(  20) = (   0.6394672   0.1456763   0.1519977  )
        21        H      tau(  21) = (   0.8605328   0.6584617   0.1941994  )
        22        H      tau(  22) = (   0.1394672   0.3671092   0.1941994  )

     number of k points=    27
                       cart. coord. in units 2pi/alat
        k(    1) = (   0.0000000   0.0000000   0.0000000), wk =   0.0312500
        k(    2) = (   0.0000000   0.0000000   0.3610660), wk =   0.0625000
        k(    3) = (   0.0000000   0.0000000  -0.7221320), wk =   0.0312500
        k(    4) = (   0.0000000   0.2437667   0.0000000), wk =   0.0625000
        k(    5) = (   0.0000000   0.2437667   0.3610660), wk =   0.1250000
        k(    6) = (   0.0000000   0.2437667  -0.7221320), wk =   0.0625000
        k(    7) = (   0.0000000  -0.4875333   0.0000000), wk =   0.0312500
        k(    8) = (   0.0000000  -0.4875333   0.3610660), wk =   0.0625000
        k(    9) = (   0.0000000  -0.4875333  -0.7221320), wk =   0.0312500
        k(   10) = (   0.2500000   0.0000000   0.0000000), wk =   0.0625000
        k(   11) = (   0.2500000   0.0000000   0.3610660), wk =   0.1250000
        k(   12) = (   0.2500000   0.0000000  -0.7221320), wk =   0.0625000
        k(   13) = (   0.2500000   0.2437667   0.0000000), wk =   0.1250000
        k(   14) = (   0.2500000   0.2437667   0.3610660), wk =   0.2500000
        k(   15) = (   0.2500000   0.2437667  -0.7221320), wk =   0.1250000
        k(   16) = (   0.2500000  -0.4875333   0.0000000), wk =   0.0625000
        k(   17) = (   0.2500000  -0.4875333   0.3610660), wk =   0.1250000
        k(   18) = (   0.2500000  -0.4875333  -0.7221320), wk =   0.0625000
        k(   19) = (  -0.5000000   0.0000000   0.0000000), wk =   0.0312500
        k(   20) = (  -0.5000000   0.0000000   0.3610660), wk =   0.0625000
        k(   21) = (  -0.5000000   0.0000000  -0.7221320), wk =   0.0312500
        k(   22) = (  -0.5000000   0.2437667   0.0000000), wk =   0.0625000
        k(   23) = (  -0.5000000   0.2437667   0.3610660), wk =   0.1250000
        k(   24) = (  -0.5000000   0.2437667  -0.7221320), wk =   0.0625000
        k(   25) = (  -0.5000000  -0.4875333   0.0000000), wk =   0.0312500
        k(   26) = (  -0.5000000  -0.4875333   0.3610660), wk =   0.0625000
        k(   27) = (  -0.5000000  -0.4875333  -0.7221320), wk =   0.0312500

     Dense  grid:   608097 G-vectors     FFT dimensions: ( 120, 128,  90)

     Smooth grid:   214915 G-vectors     FFT dimensions: (  90,  90,  60)

     Estimated max dynamical RAM per process >      97.30 MB

     Estimated total dynamical RAM >       2.28 GB

     Initial potential from superposition of free atoms

     starting charge      47.9682, renormalised to      48.0000
     Starting wfcs are   42 randomized atomic wfcs

     total cpu time spent up to now is       13.2 secs

     Self-consistent Calculation

     iteration #  1     ecut=   100.00 Ry     beta= 0.70
     Davidson diagonalization with overlap
     ethr =  1.00E-02,  avg # of iterations =  2.0

     total cpu time spent up to now is       31.2 secs

     total energy              =    -155.95649515 Ry
     estimated scf accuracy    <       1.85360897 Ry

     iteration #  2     ecut=   100.00 Ry     beta= 0.70
     Davidson diagonalization with overlap
     ethr =  3.86E-03,  avg # of iterations =  2.0

     total cpu time spent up to now is       48.9 secs

     total energy              =    -156.37795220 Ry
     estimated scf accuracy    <       0.35777636 Ry

     iteration #  3     ecut=   100.00 Ry     beta= 0.70
     Davidson diagonalization with overlap
     ethr =  7.45E-04,  avg # of iterations =  2.0

     total cpu time spent up to now is       66.6 secs

     total energy              =    -156.43821253 Ry
     estimated scf accuracy    <       0.00451843 Ry

     iteration #  4     ecut=   100.00 Ry     beta= 0.70
     Davidson diagonalization with overlap
     ethr =  9.41E-06,  avg # of iterations =  5.2

     total cpu time spent up to now is       92.3 secs

     total energy              =    -156.44086854 Ry
     estimated scf accuracy    <       0.00187550 Ry

     iteration #  5     ecut=   100.00 Ry     beta= 0.70
     Davidson diagonalization with overlap
     ethr =  3.91E-06,  avg # of iterations =  2.9

     total cpu time spent up to now is      110.5 secs

     total energy              =    -156.44150340 Ry
     estimated scf accuracy    <       0.00019437 Ry

     iteration #  6     ecut=   100.00 Ry     beta= 0.70
     Davidson diagonalization with overlap
     ethr =  4.05E-07,  avg # of iterations =  4.0

     total cpu time spent up to now is      130.7 secs

     total energy              =    -156.44157194 Ry
     estimated scf accuracy    <       0.00000170 Ry

     iteration #  7     ecut=   100.00 Ry     beta= 0.70
     Davidson diagonalization with overlap
     ethr =  3.55E-09,  avg # of iterations =  9.0

     total cpu time spent up to now is      172.0 secs

     total energy              =    -156.44158453 Ry
     estimated scf accuracy    <       0.00000134 Ry

     iteration #  8     ecut=   100.00 Ry     beta= 0.70
     Davidson diagonalization with overlap
     ethr =  2.79E-09,  avg # of iterations =  2.1

     total cpu time spent up to now is      189.8 secs

     total energy              =    -156.44158478 Ry
     estimated scf accuracy    <       0.00000002 Ry

     iteration #  9     ecut=   100.00 Ry     beta= 0.70
     Davidson diagonalization with overlap
     ethr =  4.36E-11,  avg # of iterations =  6.0

     total cpu time spent up to now is      216.3 secs

     total energy              =    -156.44158481 Ry
     estimated scf accuracy    <          2.7E-09 Ry

     iteration # 10     ecut=   100.00 Ry     beta= 0.70
     Davidson diagonalization with overlap
     ethr =  5.53E-12,  avg # of iterations =  3.8

     total cpu time spent up to now is      236.5 secs

     total energy              =    -156.44158481 Ry
     estimated scf accuracy    <          3.8E-10 Ry

     iteration # 11     ecut=   100.00 Ry     beta= 0.70
     Davidson diagonalization with overlap
     ethr =  7.91E-13,  avg # of iterations =  4.7

     total cpu time spent up to now is      258.6 secs

     End of self-consistent calculation

          k = 0.0000 0.0000 0.0000 ( 26879 PWs)   bands (ev):

   -24.8417 -24.8367 -10.2057 -10.1537 -10.0308 -10.0085  -9.9723  -9.9323
    -6.2665  -5.3960  -4.9464  -4.7712  -2.0447  -1.2304  -1.1653  -0.7946
    -0.4889  -0.4832  -0.4672  -0.3062  -0.1740   0.1937   0.2299   0.2678

          k = 0.0000 0.0000 0.3611 ( 26855 PWs)   bands (ev):

   -24.8371 -24.8336 -10.1446 -10.1350 -10.1153 -10.1106 -10.0206 -10.0087
    -5.8809  -5.2254  -5.0481  -4.9280  -1.7372  -1.4949  -1.0370  -0.9634
    -0.8622  -0.7700  -0.4388  -0.1843   0.0303   0.0391   0.0962   0.2433

          k = 0.0000 0.0000-0.7221 ( 26860 PWs)   bands (ev):

   -24.8315 -24.8314 -10.2808 -10.2807 -10.0512 -10.0512 -10.0323 -10.0323
    -5.2792  -5.2786  -5.1206  -5.1202  -1.4930  -1.4926  -1.4715  -1.4700
    -0.4996  -0.4985  -0.4554  -0.4542   0.0448   0.0451   0.0790   0.0795

          k = 0.0000 0.2438 0.0000 ( 26861 PWs)   bands (ev):

   -24.8409 -24.8374 -10.1860 -10.1349 -10.0604 -10.0296  -9.9663  -9.9380
    -6.1076  -5.3337  -5.1721  -4.8683  -1.7388  -1.3837  -1.2555  -0.5807
    -0.5595  -0.5236  -0.2755  -0.1816  -0.0958  -0.0832   0.1196   0.2029

          k = 0.0000 0.2438 0.3611 ( 26856 PWs)   bands (ev):

   -24.8366 -24.8341 -10.1669 -10.1364 -10.0955 -10.0942 -10.0237 -10.0214
    -5.7830  -5.2814  -5.0966  -4.9694  -1.5620  -1.5188  -1.2831  -0.7966
    -0.7521  -0.5568  -0.5548  -0.1419  -0.0380  -0.0221   0.0841   0.1424

          k = 0.0000 0.2438-0.7221 ( 26868 PWs)   bands (ev):

   -24.8314 -24.8314 -10.2901 -10.2901 -10.0404 -10.0404 -10.0317 -10.0317
    -5.4346  -5.4344  -4.9617  -4.9616  -1.5755  -1.5748  -1.3423  -1.3417
    -0.4369  -0.4352  -0.4190  -0.4190  -0.0899  -0.0897   0.0727   0.0730

          k = 0.0000-0.4875 0.0000 ( 26906 PWs)   bands (ev):

   -24.8392 -24.8392 -10.1342 -10.1342 -10.0773 -10.0773  -9.9520  -9.9520
    -5.6974  -5.6974  -5.0883  -5.0883  -1.4881  -1.4881  -0.8417  -0.8417
    -0.6319  -0.6319  -0.1641  -0.1641  -0.0704  -0.0704   0.0709   0.0709

          k = 0.0000-0.4875 0.3611 ( 26846 PWs)   bands (ev):

   -24.8353 -24.8353 -10.1633 -10.1633 -10.0688 -10.0688 -10.0385 -10.0385
    -5.5342  -5.5342  -5.0538  -5.0538  -1.4987  -1.4987  -1.0902  -1.0902
    -0.5432  -0.5432  -0.2796  -0.2796  -0.1190  -0.1190   0.0698   0.0698

          k = 0.0000-0.4875-0.7221 ( 26844 PWs)   bands (ev):

   -24.8314 -24.8314 -10.2987 -10.2987 -10.0345 -10.0345 -10.0270 -10.0270
    -5.5215  -5.5215  -4.8714  -4.8714  -1.6497  -1.6497  -1.1562  -1.1562
    -0.4689  -0.4689  -0.3579  -0.3579  -0.2568  -0.2568   0.1071   0.1071

          k = 0.2500 0.0000 0.0000 ( 26902 PWs)   bands (ev):

   -24.8409 -24.8374 -10.1812 -10.1404 -10.0564 -10.0375  -9.9663  -9.9380
    -6.1140  -5.4600  -4.9620  -4.8882  -1.8745  -1.1263  -1.0806  -0.9200
    -0.4810  -0.4123  -0.3572  -0.2885  -0.2040  -0.1813   0.1726   0.2198

          k = 0.2500 0.0000 0.3611 ( 26876 PWs)   bands (ev):

   -24.8366 -24.8341 -10.1593 -10.1449 -10.1157 -10.0772 -10.0346 -10.0125
    -5.7558  -5.2405  -5.0642  -5.0313  -1.7056  -1.4605  -1.3134  -0.8497
    -0.7881  -0.5898  -0.3550  -0.2292  -0.1279   0.0089   0.1846   0.1956

          k = 0.2500 0.0000-0.7221 ( 26858 PWs)   bands (ev):

   -24.8314 -24.8314 -10.2926 -10.2925 -10.0442 -10.0442 -10.0292 -10.0291
    -5.2710  -5.2706  -5.1074  -5.1071  -1.9032  -1.9028  -1.1087  -1.1082
    -0.4924  -0.4921  -0.2454  -0.2438  -0.1094  -0.1092   0.1158   0.1161

          k = 0.2500 0.2438 0.0000 ( 26888 PWs)   bands (ev):

   -24.8404 -24.8379 -10.1978 -10.1245 -10.0866 -10.0122  -9.9620  -9.9420
    -5.9888  -5.4285  -5.1433  -4.9394  -1.6218  -1.3313  -1.0932  -0.6688
    -0.6040  -0.5642  -0.2904  -0.1731  -0.1350  -0.0894   0.0104   0.1339

          k = 0.2500 0.2438 0.3611 ( 26870 PWs)   bands (ev):

   -24.8362 -24.8344 -10.1587 -10.1390 -10.1346 -10.0670 -10.0374 -10.0101
    -5.6724  -5.2449  -5.1661  -5.0405  -1.6616  -1.4194  -1.3517  -0.8446
    -0.6623  -0.5209  -0.4113  -0.2243  -0.1278  -0.0216   0.1053   0.1791

          k = 0.2500 0.2438-0.7221 ( 26828 PWs)   bands (ev):

   -24.8314 -24.8314 -10.2975 -10.2827 -10.0549 -10.0358 -10.0313 -10.0303
    -5.4266  -5.3155  -5.0595  -4.9473  -1.8792  -1.8234  -1.1548  -1.1065
    -0.5292  -0.5236  -0.2668  -0.2333  -0.0645  -0.0579   0.0626   0.1115

          k = 0.2500-0.4875 0.0000 ( 26888 PWs)   bands (ev):

   -24.8392 -24.8392 -10.1806 -10.1806 -10.0327 -10.0327  -9.9519  -9.9519
    -5.6683  -5.6683  -5.1168  -5.1168  -1.3847  -1.3847  -0.8567  -0.8567
    -0.6590  -0.6590  -0.2241  -0.2241  -0.0445  -0.0445   0.0073   0.0073

          k = 0.2500-0.4875 0.3611 ( 26866 PWs)   bands (ev):

   -24.8353 -24.8353 -10.1579 -10.1579 -10.0993 -10.0993 -10.0176 -10.0176
    -5.4603  -5.4603  -5.1172  -5.1172  -1.5673  -1.5673  -1.0588  -1.0588
    -0.5334  -0.5334  -0.2463  -0.2463  -0.1236  -0.1236   0.0827   0.0827

          k = 0.2500-0.4875-0.7221 ( 26864 PWs)   bands (ev):

   -24.8314 -24.8314 -10.2883 -10.2883 -10.0449 -10.0449 -10.0333 -10.0333
    -5.4448  -5.4448  -4.9261  -4.9261  -1.7876  -1.7876  -1.1970  -1.1970
    -0.4332  -0.4332  -0.3200  -0.3200  -0.0851  -0.0851   0.0984   0.0984

          k =-0.5000 0.0000 0.0000 ( 26894 PWs)   bands (ev):

   -24.8392 -24.8392 -10.1242 -10.1242 -10.0919 -10.0919  -9.9520  -9.9520
    -5.7535  -5.7535  -4.9780  -4.9780  -1.4943  -1.4943  -0.7627  -0.7627
    -0.4381  -0.4381  -0.3935  -0.3935  -0.3011  -0.3011   0.0874   0.0874

          k =-0.5000 0.0000 0.3611 ( 26906 PWs)   bands (ev):

   -24.8353 -24.8353 -10.1640 -10.1640 -10.0815 -10.0815 -10.0312 -10.0312
    -5.4583  -5.4583  -5.0923  -5.0923  -1.6174  -1.6174  -1.1053  -1.1053
    -0.5391  -0.5391  -0.3664  -0.3664  -0.0278  -0.0278   0.1666   0.1666

          k =-0.5000 0.0000-0.7221 ( 26864 PWs)   bands (ev):

   -24.8314 -24.8314 -10.3035 -10.3035 -10.0399 -10.0399 -10.0242 -10.0242
    -5.2677  -5.2677  -5.0879  -5.0879  -2.0922  -2.0922  -0.8856  -0.8856
    -0.5083  -0.5083  -0.3380  -0.3380   0.0418   0.0418   0.0982   0.0982

          k =-0.5000 0.2438 0.0000 ( 26878 PWs)   bands (ev):

   -24.8392 -24.8392 -10.1799 -10.1799 -10.0357 -10.0357  -9.9518  -9.9518
    -5.7024  -5.7024  -5.0558  -5.0558  -1.3938  -1.3938  -0.7703  -0.7703
    -0.5998  -0.5998  -0.4244  -0.4244  -0.1222  -0.1222   0.0620   0.0620

          k =-0.5000 0.2438 0.3611 ( 26896 PWs)   bands (ev):

   -24.8353 -24.8353 -10.1584 -10.1584 -10.1028 -10.1028 -10.0166 -10.0166
    -5.4114  -5.4114  -5.1473  -5.1473  -1.6174  -1.6174  -1.0907  -1.0907
    -0.5031  -0.5031  -0.3197  -0.3197  -0.0358  -0.0358   0.1045   0.1045

          k =-0.5000 0.2438-0.7221 ( 26848 PWs)   bands (ev):

   -24.8314 -24.8314 -10.2909 -10.2909 -10.0467 -10.0467 -10.0326 -10.0326
    -5.3119  -5.3119  -5.0401  -5.0401  -2.0118  -2.0118  -1.0563  -1.0563
    -0.4655  -0.4655  -0.2869  -0.2869   0.0123   0.0123   0.1349   0.1349

          k =-0.5000-0.4875 0.0000 ( 26844 PWs)   bands (ev):

   -24.8392 -24.8392 -10.2082 -10.2082 -10.0068 -10.0068  -9.9517  -9.9517
    -5.6371  -5.6371  -5.1469  -5.1469  -1.2434  -1.2434  -0.9178  -0.9178
    -0.6839  -0.6839  -0.2350  -0.2350  -0.0979  -0.0979  -0.0207  -0.0207

          k =-0.5000-0.4875 0.3611 ( 26840 PWs)   bands (ev):

   -24.8353 -24.8353 -10.1493 -10.1493 -10.1223 -10.1223 -10.0071 -10.0071
    -5.3246  -5.3246  -5.2421  -5.2421  -1.5981  -1.5981  -1.1395  -1.1395
    -0.3682  -0.3682  -0.2273  -0.2273  -0.0960  -0.0960  -0.0069  -0.0069

          k =-0.5000-0.4875-0.7221 ( 26824 PWs)   bands (ev):

   -24.8314 -24.8314 -10.2767 -10.2767 -10.0591 -10.0591 -10.0371 -10.0371
    -5.3445  -5.3445  -5.0039  -5.0039  -1.8836  -1.8836  -1.3032  -1.3032
    -0.2750  -0.2750  -0.2253  -0.2253  -0.0840  -0.0840   0.1042   0.1042

     highest occupied level (ev):     0.2678

!    total energy              =    -156.44158481 Ry
     estimated scf accuracy    <          7.0E-12 Ry

     The total energy is the sum of the following terms:
     one-electron contribution =     -27.30466587 Ry
     hartree contribution      =      26.64348123 Ry
     xc contribution           =     -48.60511771 Ry
     ewald contribution        =    -107.17528246 Ry

     convergence has been achieved in  11 iterations

     Forces acting on atoms (cartesian axes, Ry/au):

     atom    1 type  2   force =     0.00000000    0.00000000    0.00000760
     atom    2 type  2   force =     0.00000000    0.00000000   -0.00000760
     atom    3 type  1   force =     0.00056449    0.00292913   -0.00001660
     atom    4 type  1   force =    -0.00056449   -0.00292913   -0.00001660
     atom    5 type  1   force =     0.00056449   -0.00292913    0.00001660
     atom    6 type  1   force =    -0.00056449    0.00292913    0.00001660
     atom    7 type  3   force =     0.02696234   -0.00689213   -0.00002460
     atom    8 type  3   force =    -0.02696234    0.00689213   -0.00002460
     atom    9 type  3   force =     0.02696234    0.00689213    0.00002460
     atom   10 type  3   force =    -0.02696234   -0.00689213    0.00002460
     atom   11 type  3   force =    -0.01780317   -0.02160379    0.00001012
     atom   12 type  3   force =     0.01780317    0.02160379    0.00001012
     atom   13 type  3   force =    -0.01780317    0.02160379   -0.00001012
     atom   14 type  3   force =     0.01780317   -0.02160379   -0.00001012
     atom   15 type  3   force =    -0.00337141    0.01586200    0.02408389
     atom   16 type  3   force =     0.00337141   -0.01586200    0.02408389
     atom   17 type  3   force =    -0.00337141   -0.01586200   -0.02408389
     atom   18 type  3   force =     0.00337141    0.01586200   -0.02408389
     atom   19 type  3   force =     0.00343895   -0.01588247   -0.02408539
     atom   20 type  3   force =    -0.00343895    0.01588247   -0.02408539
     atom   21 type  3   force =     0.00343895    0.01588247    0.02408539
     atom   22 type  3   force =    -0.00343895   -0.01588247    0.02408539

     Total force =     0.114092     Total SCF correction =     0.000003


     Computing stress (Cartesian axis) and pressure

          total   stress  (Ry/bohr**3)                   (kbar)     P=      -55.14
  -0.00034964   0.00000000   0.00000000          -51.43        0.00        0.00
   0.00000000  -0.00035623   0.00000000            0.00      -52.40        0.00
   0.00000000   0.00000000  -0.00041854            0.00        0.00      -61.57

     Volume is kept fixed: isostatic pressure set to zero

     BFGS Geometry Optimization
     Energy error            =      0.0E+00 Ry
     Gradient error          =      2.7E-02 Ry/Bohr
     Cell gradient error     =      6.4E+00 kbar

     number of scf cycles    =   1
     number of bfgs steps    =   0

     enthalpy           new  =    -156.4415848088 Ry

     new trust radius        =       0.0290548636 bohr
ibrav =      8
 celldm(1) =     13.09373343
 celldm(2) =      1.02540191
 celldm(3) =      0.69120232
Input lattice vectors:
     1.00062940     0.00000000     0.00000000
     0.00000000     1.02604731     0.00000000
     0.00000000     0.00000000     0.69163737
New lattice vectors in INITIAL alat:
     1.00062940     0.00000000     0.00000000
     0.00000000     1.02604731     0.00000000
     0.00000000     0.00000000     0.69163737
New lattice vectors in NEW alat (for information only):
     1.00000000     0.00000000     0.00000000
     0.00000000     1.02540191     0.00000000
     0.00000000     0.00000000     0.69120232
Discrepancy in bohr =     0.000000    0.000000    0.000000
     new conv_thr            =            1.0E-10 Ry

     new unit-cell volume =   1591.07187 a.u.^3 (   235.77253 Ang^3 )
     density =      2.35253 g/cm^3

CELL_PARAMETERS (alat= 13.08549736)
   1.000629404   0.000000000   0.000000000
   0.000000000   1.026047305   0.000000000
   0.000000000   0.000000000   0.691637370

ATOMIC_POSITIONS (crystal)
Ba               0.5000000000        0.5000000000        0.5001000042
Ba               0.0000000000        0.0000000000        0.9998999958
B                0.6103001544        0.2394206448        0.0000638247
B                0.3896998456        0.7605793552        0.0000638247
B                0.1103001544        0.2605793552        0.4999361753
B                0.8896998456        0.7394206448        0.4999361753
H                0.4361577275        0.2916421616        0.0002282184
H                0.5638422725        0.7083578384        0.0002282184
H                0.9361577275        0.2083578384        0.4997717816
H                0.0638422725        0.7916421616        0.4997717816
H                0.7206997408        0.3819452014       -0.0000072542
H                0.2793002592        0.6180547986       -0.0000072542
H                0.2206997408        0.1180547986        0.5000072542
H                0.7793002592        0.8819452014        0.5000072542
H                0.6389922801        0.1432763526        0.7831565851
H                0.3610077199        0.8567236474        0.7831565851
H                0.1389922801        0.3567236474        0.7168434149
H                0.8610077199        0.6432763526        0.7168434149
H                0.3607956370        0.8567724314        0.2168665116
H                0.6392043630        0.1432275686        0.2168665116
H                0.8607956370        0.6432275686        0.2831334884
H                0.1392043630        0.3567724314        0.2831334884



     Writing config-only to output data dir ./pwscf.save/ :
     XML data file
     NEW-OLD atomic charge density approx. for the potential

     total cpu time spent up to now is      293.0 secs

     Self-consistent Calculation

     iteration #  1     ecut=   100.00 Ry     beta= 0.70
     Davidson diagonalization with overlap
     ethr =  1.00E-06,  avg # of iterations =  5.0

     total cpu time spent up to now is      321.1 secs

     total energy              =    -156.45142555 Ry
     estimated scf accuracy    <       0.00325846 Ry

     iteration #  2     ecut=   100.00 Ry     beta= 0.70
     Davidson diagonalization with overlap
     ethr =  6.79E-06,  avg # of iterations =  2.0

     total cpu time spent up to now is      338.8 secs

     total energy              =    -156.45244899 Ry
     estimated scf accuracy    <       0.00093292 Ry

     iteration #  3     ecut=   100.00 Ry     beta= 0.70
     Davidson diagonalization with overlap
     ethr =  1.94E-06,  avg # of iterations =  2.0

     total cpu time spent up to now is      356.5 secs

     total energy              =    -156.45256695 Ry
     estimated scf accuracy    <       0.00001513 Ry

     iteration #  4     ecut=   100.00 Ry     beta= 0.70
     Davidson diagonalization with overlap
     ethr =  3.15E-08,  avg # of iterations =  3.0

     total cpu time spent up to now is      377.2 secs

     total energy              =    -156.45257450 Ry
     estimated scf accuracy    <       0.00000990 Ry

     iteration #  5     ecut=   100.00 Ry     beta= 0.70
     Davidson diagonalization with overlap
     ethr =  2.06E-08,  avg # of iterations =  2.0

     total cpu time spent up to now is      394.9 secs

     total energy              =    -156.45257500 Ry
     estimated scf accuracy    <       0.00000078 Ry

     iteration #  6     ecut=   100.00 Ry     beta= 0.70
     Davidson diagonalization with overlap
     ethr =  1.63E-09,  avg # of iterations =  2.5

     total cpu time spent up to now is      412.9 secs

     total energy              =    -156.45257533 Ry
     estimated scf accuracy    <       0.00000020 Ry

     iteration #  7     ecut=   100.00 Ry     beta= 0.70
     Davidson diagonalization with overlap
     ethr =  4.23E-10,  avg # of iterations =  2.0

     total cpu time spent up to now is      430.7 secs

     total energy              =    -156.45257535 Ry
     estimated scf accuracy    <          6.2E-09 Ry

     iteration #  8     ecut=   100.00 Ry     beta= 0.70
     Davidson diagonalization with overlap
     ethr =  1.30E-11,  avg # of iterations =  5.2

     total cpu time spent up to now is      455.8 secs

     total energy              =    -156.45257536 Ry
     estimated scf accuracy    <          1.2E-10 Ry

     iteration #  9     ecut=   100.00 Ry     beta= 0.70
     Davidson diagonalization with overlap
     ethr =  2.43E-13,  avg # of iterations =  6.5

     total cpu time spent up to now is      487.4 secs

     End of self-consistent calculation

          k = 0.0000 0.0000 0.0000 ( 26879 PWs)   bands (ev):

   -24.8669 -24.8620 -10.2307 -10.1779 -10.0546 -10.0322  -9.9952  -9.9556
    -6.3170  -5.4750  -5.0223  -4.8517  -2.0440  -1.2440  -1.1951  -0.8405
    -0.5106  -0.5068  -0.5055  -0.3441  -0.2078   0.1407   0.1764   0.2107

          k = 0.0000 0.0000 0.3615 ( 26855 PWs)   bands (ev):

   -24.8623 -24.8588 -10.1688 -10.1596 -10.1403 -10.1344 -10.0441 -10.0323
    -5.9346  -5.3020  -5.1266  -5.0102  -1.7332  -1.5005  -1.0437  -0.9949
    -0.8907  -0.8002  -0.4775  -0.2298  -0.0193  -0.0103   0.0489   0.1892

          k = 0.0000 0.0000-0.7229 ( 26860 PWs)   bands (ev):

   -24.8566 -24.8566 -10.3070 -10.3069 -10.0744 -10.0744 -10.0559 -10.0559
    -5.3454  -5.3449  -5.2029  -5.2024  -1.4948  -1.4944  -1.4712  -1.4697
    -0.5406  -0.5396  -0.4944  -0.4931  -0.0033  -0.0030   0.0266   0.0272

          k = 0.0000 0.2437 0.0000 ( 26861 PWs)   bands (ev):

   -24.8662 -24.8627 -10.2109 -10.1593 -10.0841 -10.0533  -9.9893  -9.9613
    -6.1602  -5.4122  -5.2413  -4.9484  -1.7464  -1.3970  -1.2777  -0.6102
    -0.5941  -0.5714  -0.3067  -0.2187  -0.1330  -0.1303   0.0675   0.1506

          k = 0.0000 0.2437 0.3615 ( 26856 PWs)   bands (ev):

   -24.8618 -24.8593 -10.1912 -10.1611 -10.1201 -10.1182 -10.0473 -10.0449
    -5.8394  -5.3558  -5.1725  -5.0501  -1.5627  -1.5235  -1.2948  -0.8206
    -0.7823  -0.5988  -0.5872  -0.1875  -0.0859  -0.0715   0.0357   0.0918

          k = 0.0000 0.2437-0.7229 ( 26868 PWs)   bands (ev):

   -24.8566 -24.8566 -10.3162 -10.3161 -10.0636 -10.0636 -10.0553 -10.0553
    -5.5073  -5.5071  -5.0369  -5.0369  -1.5759  -1.5752  -1.3454  -1.3448
    -0.4768  -0.4753  -0.4608  -0.4606  -0.1358  -0.1357   0.0207   0.0210

          k = 0.0000-0.4873 0.0000 ( 26906 PWs)   bands (ev):

   -24.8645 -24.8645 -10.1591 -10.1591 -10.1007 -10.1007  -9.9752  -9.9752
    -5.7564  -5.7564  -5.1673  -5.1673  -1.4998  -1.4998  -0.8717  -0.8717
    -0.6630  -0.6630  -0.2157  -0.2157  -0.1087  -0.1087   0.0254   0.0254

          k = 0.0000-0.4873 0.3615 ( 26846 PWs)   bands (ev):

   -24.8605 -24.8605 -10.1878 -10.1878 -10.0934 -10.0934 -10.0618 -10.0618
    -5.5985  -5.5985  -5.1318  -5.1318  -1.5025  -1.5025  -1.1079  -1.1079
    -0.5803  -0.5803  -0.3183  -0.3183  -0.1695  -0.1695   0.0214   0.0214

          k = 0.0000-0.4873-0.7229 ( 26844 PWs)   bands (ev):

   -24.8566 -24.8566 -10.3247 -10.3247 -10.0579 -10.0579 -10.0504 -10.0504
    -5.5953  -5.5953  -4.9450  -4.9450  -1.6497  -1.6497  -1.1604  -1.1604
    -0.5128  -0.5128  -0.3947  -0.3947  -0.3035  -0.3035   0.0541   0.0541

          k = 0.2498 0.0000 0.0000 ( 26902 PWs)   bands (ev):

   -24.8662 -24.8627 -10.2061 -10.1647 -10.0803 -10.0611  -9.9893  -9.9613
    -6.1670  -5.5336  -5.0389  -4.9670  -1.8762  -1.1443  -1.1028  -0.9547
    -0.5080  -0.4522  -0.3903  -0.3278  -0.2416  -0.2255   0.1193   0.1628

          k = 0.2498 0.0000 0.3615 ( 26876 PWs)   bands (ev):

   -24.8618 -24.8593 -10.1837 -10.1696 -10.1400 -10.1015 -10.0579 -10.0362
    -5.8121  -5.3141  -5.1432  -5.1116  -1.6996  -1.4731  -1.3161  -0.8785
    -0.8225  -0.6230  -0.3982  -0.2721  -0.1731  -0.0376   0.1306   0.1456

          k = 0.2498 0.0000-0.7229 ( 26858 PWs)   bands (ev):

   -24.8566 -24.8566 -10.3187 -10.3186 -10.0673 -10.0673 -10.0529 -10.0528
    -5.3450  -5.3446  -5.1825  -5.1822  -1.8972  -1.8967  -1.1186  -1.1182
    -0.5333  -0.5330  -0.2865  -0.2849  -0.1553  -0.1551   0.0639   0.0642

          k = 0.2498 0.2437 0.0000 ( 26888 PWs)   bands (ev):

   -24.8657 -24.8632 -10.2224 -10.1494 -10.1098 -10.0359  -9.9850  -9.9652
    -6.0443  -5.5017  -5.2153  -5.0165  -1.6321  -1.3490  -1.1167  -0.7011
    -0.6336  -0.5962  -0.3340  -0.2107  -0.1808  -0.1284  -0.0404   0.0842

          k = 0.2498 0.2437 0.3615 ( 26870 PWs)   bands (ev):

   -24.8614 -24.8597 -10.1834 -10.1630 -10.1591 -10.0917 -10.0606 -10.0337
    -5.7313  -5.3200  -5.2394  -5.1199  -1.6596  -1.4232  -1.3657  -0.8732
    -0.6956  -0.5562  -0.4527  -0.2654  -0.1746  -0.0704   0.0553   0.1293

          k = 0.2498 0.2437-0.7229 ( 26828 PWs)   bands (ev):

   -24.8566 -24.8566 -10.3237 -10.3087 -10.0781 -10.0591 -10.0545 -10.0540
    -5.5017  -5.3893  -5.1348  -5.0209  -1.8734  -1.8172  -1.1665  -1.1163
    -0.5693  -0.5633  -0.3060  -0.2761  -0.1125  -0.1062   0.0138   0.0577

          k = 0.2498-0.4873 0.0000 ( 26888 PWs)   bands (ev):

   -24.8644 -24.8644 -10.2050 -10.2050 -10.0565 -10.0565  -9.9750  -9.9750
    -5.7310  -5.7310  -5.1910  -5.1910  -1.4022  -1.4022  -0.8860  -0.8860
    -0.6888  -0.6888  -0.2667  -0.2667  -0.0841  -0.0841  -0.0416  -0.0416

          k = 0.2498-0.4873 0.3615 ( 26866 PWs)   bands (ev):

   -24.8605 -24.8605 -10.1822 -10.1822 -10.1237 -10.1237 -10.0412 -10.0412
    -5.5264  -5.5264  -5.1932  -5.1932  -1.5690  -1.5690  -1.0816  -1.0816
    -0.5680  -0.5680  -0.2883  -0.2883  -0.1707  -0.1707   0.0338   0.0338

          k = 0.2498-0.4873-0.7229 ( 26864 PWs)   bands (ev):

   -24.8566 -24.8566 -10.3143 -10.3143 -10.0681 -10.0681 -10.0569 -10.0569
    -5.5196  -5.5196  -4.9999  -4.9999  -1.7817  -1.7817  -1.2088  -1.2088
    -0.4748  -0.4748  -0.3587  -0.3587  -0.1338  -0.1338   0.0470   0.0470

          k =-0.4997 0.0000 0.0000 ( 26894 PWs)   bands (ev):

   -24.8644 -24.8644 -10.1493 -10.1493 -10.1150 -10.1150  -9.9752  -9.9752
    -5.8145  -5.8145  -5.0567  -5.0567  -1.5022  -1.5022  -0.7919  -0.7919
    -0.4661  -0.4661  -0.4384  -0.4384  -0.3417  -0.3417   0.0336   0.0336

          k =-0.4997 0.0000 0.3615 ( 26906 PWs)   bands (ev):

   -24.8605 -24.8605 -10.1886 -10.1886 -10.1057 -10.1057 -10.0547 -10.0547
    -5.5217  -5.5217  -5.1725  -5.1725  -1.6149  -1.6149  -1.1264  -1.1264
    -0.5776  -0.5776  -0.4076  -0.4076  -0.0732  -0.0732   0.1142   0.1142

          k =-0.4997 0.0000-0.7229 ( 26864 PWs)   bands (ev):

   -24.8566 -24.8566 -10.3296 -10.3296 -10.0630 -10.0630 -10.0478 -10.0478
    -5.3479  -5.3479  -5.1576  -5.1576  -2.0833  -2.0833  -0.8992  -0.8992
    -0.5489  -0.5489  -0.3805  -0.3805  -0.0032  -0.0032   0.0450   0.0450

          k =-0.4997 0.2437 0.0000 ( 26878 PWs)   bands (ev):

   -24.8644 -24.8644 -10.2042 -10.2042 -10.0595 -10.0595  -9.9750  -9.9750
    -5.7658  -5.7658  -5.1301  -5.1301  -1.4097  -1.4097  -0.7983  -0.7983
    -0.6294  -0.6294  -0.4655  -0.4655  -0.1617  -0.1617   0.0100   0.0100

          k =-0.4997 0.2437 0.3615 ( 26896 PWs)   bands (ev):

   -24.8605 -24.8605 -10.1827 -10.1827 -10.1271 -10.1271 -10.0402 -10.0402
    -5.4768  -5.4768  -5.2246  -5.2246  -1.6167  -1.6167  -1.1134  -1.1134
    -0.5410  -0.5410  -0.3609  -0.3609  -0.0821  -0.0821   0.0549   0.0549

          k =-0.4997 0.2437-0.7229 ( 26848 PWs)   bands (ev):

   -24.8566 -24.8566 -10.3170 -10.3170 -10.0698 -10.0698 -10.0563 -10.0563
    -5.3895  -5.3895  -5.1124  -5.1124  -2.0030  -2.0030  -1.0701  -1.0701
    -0.5053  -0.5053  -0.3308  -0.3308  -0.0343  -0.0343   0.0832   0.0832

          k =-0.4997-0.4873 0.0000 ( 26844 PWs)   bands (ev):

   -24.8644 -24.8644 -10.2325 -10.2325 -10.0307 -10.0307  -9.9748  -9.9748
    -5.7042  -5.7042  -5.2155  -5.2155  -1.2730  -1.2730  -0.9372  -0.9372
    -0.7127  -0.7127  -0.2776  -0.2776  -0.1440  -0.1440  -0.0615  -0.0615

          k =-0.4997-0.4873 0.3615 ( 26840 PWs)   bands (ev):

   -24.8605 -24.8605 -10.1731 -10.1731 -10.1472 -10.1472 -10.0308 -10.0308
    -5.3939  -5.3939  -5.3147  -5.3147  -1.5986  -1.5986  -1.1633  -1.1633
    -0.4055  -0.4055  -0.2748  -0.2748  -0.1414  -0.1414  -0.0502  -0.0502

          k =-0.4997-0.4873-0.7229 ( 26824 PWs)   bands (ev):

   -24.8566 -24.8566 -10.3029 -10.3029 -10.0822 -10.0822 -10.0606 -10.0606
    -5.4208  -5.4208  -5.0774  -5.0774  -1.8743  -1.8743  -1.3162  -1.3162
    -0.3192  -0.3192  -0.2731  -0.2731  -0.1275  -0.1275   0.0557   0.0557

     highest occupied level (ev):     0.2107

!    total energy              =    -156.45257536 Ry
     estimated scf accuracy    <          5.1E-11 Ry

     The total energy is the sum of the following terms:
     one-electron contribution =     -28.13221061 Ry
     hartree contribution      =      27.05866501 Ry
     xc contribution           =     -48.70821921 Ry
     ewald contribution        =    -106.67081055 Ry

     convergence has been achieved in   9 iterations

     Forces acting on atoms (cartesian axes, Ry/au):

     atom    1 type  2   force =     0.00000000    0.00000000    0.00000610
     atom    2 type  2   force =     0.00000000    0.00000000   -0.00000610
     atom    3 type  1   force =     0.00079041    0.00323540   -0.00001061
     atom    4 type  1   force =    -0.00079041   -0.00323540   -0.00001061
     atom    5 type  1   force =     0.00079041   -0.00323540    0.00001061
     atom    6 type  1   force =    -0.00079041    0.00323540    0.00001061
     atom    7 type  3   force =     0.01837929   -0.00434370   -0.00001944
     atom    8 type  3   force =    -0.01837929    0.00434370   -0.00001944
     atom    9 type  3   force =     0.01837929    0.00434370    0.00001944
     atom   10 type  3   force =    -0.01837929   -0.00434370    0.00001944
     atom   11 type  3   force =    -0.01217728   -0.01408365    0.00000664
     atom   12 type  3   force =     0.01217728    0.01408365    0.00000664
     atom   13 type  3   force =    -0.01217728    0.01408365   -0.00000664
     atom   14 type  3   force =     0.01217728   -0.01408365   -0.00000664
     atom   15 type  3   force =    -0.00192585    0.01079705    0.01584502
     atom   16 type  3   force =     0.00192585   -0.01079705    0.01584502
     atom   17 type  3   force =    -0.00192585   -0.01079705   -0.01584502
     atom   18 type  3   force =     0.00192585    0.01079705   -0.01584502
     atom   19 type  3   force =     0.00198008   -0.01081501   -0.01585262
     atom   20 type  3   force =    -0.00198008    0.01081501   -0.01585262
     atom   21 type  3   force =     0.00198008    0.01081501    0.01585262
     atom   22 type  3   force =    -0.00198008   -0.01081501    0.01585262

     Total force =     0.076366     Total SCF correction =     0.000003


     Computing stress (Cartesian axis) and pressure

          total   stress  (Ry/bohr**3)                   (kbar)     P=      -44.26
  -0.00028073   0.00000000   0.00000000          -41.30        0.00        0.00
   0.00000000  -0.00028563   0.00000000            0.00      -42.02        0.00
   0.00000000   0.00000000  -0.00033628            0.00        0.00      -49.47

     Volume is kept fixed: isostatic pressure set to zero
     Energy error            =      1.1E-02 Ry
     Gradient error          =      1.8E-02 Ry/Bohr
     Cell gradient error     =      5.2E+00 kbar

     number of scf cycles    =   2
     number of bfgs steps    =   1

     enthalpy           old  =    -156.4415848088 Ry
     enthalpy           new  =    -156.4525753605 Ry

     CASE: enthalpy          _new < enthalpy          _old

     new trust radius        =       0.0435560062 bohr
ibrav =      8
 celldm(1) =     13.10865446
 celldm(2) =      1.02511906
 celldm(3) =      0.68903478
Input lattice vectors:
     1.00176968     0.00000000     0.00000000
     0.00000000     1.02693319     0.00000000
     0.00000000     0.00000000     0.69025414
New lattice vectors in INITIAL alat:
     1.00176968     0.00000000     0.00000000
     0.00000000     1.02693319     0.00000000
     0.00000000     0.00000000     0.69025414
New lattice vectors in NEW alat (for information only):
     1.00000000     0.00000000     0.00000000
     0.00000000     1.02511906     0.00000000
     0.00000000     0.00000000     0.68903478
Discrepancy in bohr =     0.000000    0.000000    0.000000
     new conv_thr            =            1.0E-10 Ry

     new unit-cell volume =   1591.07187 a.u.^3 (   235.77253 Ang^3 )
     density =      2.35253 g/cm^3

CELL_PARAMETERS (alat= 13.08549736)
   1.001769677   0.000000000   0.000000000
   0.000000000   1.026933191   0.000000000
   0.000000000   0.000000000   0.690254145

ATOMIC_POSITIONS (crystal)
Ba               0.5000000000        0.5000000000        0.5001015230
Ba               0.0000000000        0.0000000000        0.9998984770
B                0.6104364537        0.2399648662        0.0000611797
B                0.3895635463        0.7600351338        0.0000611797
B                0.1104364537        0.2600351338        0.4999388203
B                0.8895635463        0.7399648662        0.4999388203
H                0.4393341125        0.2909100445        0.0002233772
H                0.5606658875        0.7090899555        0.0002233772
H                0.9393341125        0.2090899555        0.4997766228
H                0.0606658875        0.7909100445        0.4997766228
H                0.7185952445        0.3795718160       -0.0000056005
H                0.2814047555        0.6204281840       -0.0000056005
H                0.2185952445        0.1204281840        0.5000056005
H                0.7814047555        0.8795718160        0.5000056005
H                0.6386591687        0.1450955301        0.7871053995
H                0.3613408313        0.8549044699        0.7871053995
H                0.1386591687        0.3549044699        0.7128946005
H                0.8613408313        0.6450955301        0.7128946005
H                0.3611381152        0.8549502301        0.2129158099
H                0.6388618848        0.1450497699        0.2129158099
H                0.8611381152        0.6450497699        0.2870841901
H                0.1388618848        0.3549502301        0.2870841901



     Writing config-only to output data dir ./pwscf.save/ :
     XML data file
     NEW-OLD atomic charge density approx. for the potential

     total cpu time spent up to now is      521.7 secs

     Self-consistent Calculation

     iteration #  1     ecut=   100.00 Ry     beta= 0.70
     Davidson diagonalization with overlap
     ethr =  1.00E-06,  avg # of iterations =  6.0

     total cpu time spent up to now is      552.6 secs

     total energy              =    -156.45795567 Ry
     estimated scf accuracy    <       0.00773132 Ry

     iteration #  2     ecut=   100.00 Ry     beta= 0.70
     Davidson diagonalization with overlap
     ethr =  1.61E-05,  avg # of iterations =  2.0

     total cpu time spent up to now is      570.3 secs

     total energy              =    -156.46033295 Ry
     estimated scf accuracy    <       0.00210498 Ry

     iteration #  3     ecut=   100.00 Ry     beta= 0.70
     Davidson diagonalization with overlap
     ethr =  4.39E-06,  avg # of iterations =  2.0

     total cpu time spent up to now is      588.0 secs

     total energy              =    -156.46061152 Ry
     estimated scf accuracy    <       0.00002919 Ry

     iteration #  4     ecut=   100.00 Ry     beta= 0.70
     Davidson diagonalization with overlap
     ethr =  6.08E-08,  avg # of iterations =  3.0

     total cpu time spent up to now is      608.7 secs

     total energy              =    -156.46062578 Ry
     estimated scf accuracy    <       0.00001682 Ry

     iteration #  5     ecut=   100.00 Ry     beta= 0.70
     Davidson diagonalization with overlap
     ethr =  3.50E-08,  avg # of iterations =  2.0

     total cpu time spent up to now is      626.4 secs

     total energy              =    -156.46062698 Ry
     estimated scf accuracy    <       0.00000105 Ry

     iteration #  6     ecut=   100.00 Ry     beta= 0.70
     Davidson diagonalization with overlap
     ethr =  2.18E-09,  avg # of iterations =  2.9

     total cpu time spent up to now is      644.8 secs

     total energy              =    -156.46062744 Ry
     estimated scf accuracy    <       0.00000033 Ry

     iteration #  7     ecut=   100.00 Ry     beta= 0.70
     Davidson diagonalization with overlap
     ethr =  6.90E-10,  avg # of iterations =  2.0

     total cpu time spent up to now is      662.6 secs

     total energy              =    -156.46062749 Ry
     estimated scf accuracy    <          6.7E-09 Ry

     iteration #  8     ecut=   100.00 Ry     beta= 0.70
     Davidson diagonalization with overlap
     ethr =  1.40E-11,  avg # of iterations =  6.0

     total cpu time spent up to now is      691.1 secs

     total energy              =    -156.46062750 Ry
     estimated scf accuracy    <          2.4E-10 Ry

     iteration #  9     ecut=   100.00 Ry     beta= 0.70
     Davidson diagonalization with overlap
     ethr =  4.93E-13,  avg # of iterations =  5.1

     total cpu time spent up to now is      716.5 secs

     total energy              =    -156.46062750 Ry
     estimated scf accuracy    <          2.4E-10 Ry

     iteration # 10     ecut=   100.00 Ry     beta= 0.70
     Davidson diagonalization with overlap
     ethr =  4.93E-13,  avg # of iterations =  1.0

     total cpu time spent up to now is      730.4 secs

     total energy              =    -156.46062750 Ry
     estimated scf accuracy    <          3.1E-10 Ry

     iteration # 11     ecut=   100.00 Ry     beta= 0.70
     Davidson diagonalization with overlap
     ethr =  4.93E-13,  avg # of iterations =  4.9

     total cpu time spent up to now is      753.1 secs

     total energy              =    -156.46062750 Ry
     estimated scf accuracy    <          3.3E-10 Ry

     iteration # 12     ecut=   100.00 Ry     beta= 0.70
     Davidson diagonalization with overlap
     ethr =  4.93E-13,  avg # of iterations =  1.0

     total cpu time spent up to now is      767.1 secs

     total energy              =    -156.46062750 Ry
     estimated scf accuracy    <          1.1E-10 Ry

     iteration # 13     ecut=   100.00 Ry     beta= 0.70
     Davidson diagonalization with overlap
     ethr =  2.37E-13,  avg # of iterations =  2.0

     total cpu time spent up to now is      785.0 secs

     End of self-consistent calculation

          k = 0.0000 0.0000 0.0000 ( 26879 PWs)   bands (ev):

   -24.9045 -24.8996 -10.2682 -10.2144 -10.0901 -10.0675 -10.0294  -9.9905
    -6.3960  -5.5959  -5.1389  -4.9758  -2.0478  -1.2677  -1.2433  -0.9115
    -0.5594  -0.5452  -0.5422  -0.3960  -0.2516   0.0609   0.0903   0.1193

          k = 0.0000 0.0000 0.3622 ( 26855 PWs)   bands (ev):

   -24.8997 -24.8963 -10.2050 -10.1973 -10.1784 -10.1701 -10.0791 -10.0675
    -6.0174  -5.4185  -5.2476  -5.1370  -1.7310  -1.5115  -1.0581  -1.0452
    -0.9325  -0.8416  -0.5335  -0.2967  -0.0958  -0.0897  -0.0215   0.1048

          k = 0.0000 0.0000-0.7244 ( 26860 PWs)   bands (ev):

   -24.8940 -24.8940 -10.3476 -10.3475 -10.1087 -10.1087 -10.0910 -10.0910
    -5.4459  -5.4454  -5.3300  -5.3296  -1.4962  -1.4958  -1.4741  -1.4727
    -0.6035  -0.6026  -0.5562  -0.5548  -0.0750  -0.0748  -0.0545  -0.0540

          k = 0.0000 0.2434 0.0000 ( 26861 PWs)   bands (ev):

   -24.9037 -24.9003 -10.2483 -10.1962 -10.1193 -10.0886 -10.0236  -9.9960
    -6.2424  -5.5334  -5.3472  -5.0717  -1.7621  -1.4206  -1.3162  -0.6485
    -0.6451  -0.6406  -0.3623  -0.2687  -0.2068  -0.1824  -0.0113   0.0660

          k = 0.0000 0.2434 0.3622 ( 26856 PWs)   bands (ev):

   -24.8992 -24.8968 -10.2280 -10.1987 -10.1572 -10.1541 -10.0825 -10.0799
    -5.9265  -5.4694  -5.2895  -5.1747  -1.5668  -1.5335  -1.3176  -0.8545
    -0.8261  -0.6623  -0.6356  -0.2550  -0.1609  -0.1478  -0.0373   0.0122

          k = 0.0000 0.2434-0.7244 ( 26868 PWs)   bands (ev):

   -24.8940 -24.8940 -10.3565 -10.3565 -10.0980 -10.0980 -10.0905 -10.0905
    -5.6186  -5.6185  -5.1524  -5.1524  -1.5794  -1.5788  -1.3493  -1.3487
    -0.5390  -0.5382  -0.5247  -0.5240  -0.2044  -0.2043  -0.0609  -0.0606

          k = 0.0000-0.4869 0.0000 ( 26906 PWs)   bands (ev):

   -24.9020 -24.9020 -10.1967 -10.1967 -10.1354 -10.1354 -10.0097 -10.0097
    -5.8490  -5.8490  -5.2880  -5.2880  -1.5210  -1.5210  -0.9229  -0.9229
    -0.7038  -0.7038  -0.2954  -0.2954  -0.1602  -0.1602  -0.0490  -0.0490

          k = 0.0000-0.4869 0.3622 ( 26846 PWs)   bands (ev):

   -24.8980 -24.8980 -10.2248 -10.2248 -10.1304 -10.1304 -10.0965 -10.0965
    -5.6974  -5.6974  -5.2518  -5.2518  -1.5115  -1.5115  -1.1363  -1.1363
    -0.6343  -0.6343  -0.3750  -0.3750  -0.2484  -0.2484  -0.0538  -0.0538

          k = 0.0000-0.4869-0.7244 ( 26844 PWs)   bands (ev):

   -24.8940 -24.8940 -10.3648 -10.3648 -10.0928 -10.0928 -10.0851 -10.0851
    -5.7080  -5.7080  -5.0584  -5.0584  -1.6530  -1.6530  -1.1647  -1.1647
    -0.5815  -0.5815  -0.4517  -0.4517  -0.3726  -0.3726  -0.0294  -0.0294

          k = 0.2496 0.0000 0.0000 ( 26902 PWs)   bands (ev):

   -24.9037 -24.9003 -10.2436 -10.2011 -10.1158 -10.0963 -10.0236  -9.9960
    -6.2501  -5.6474  -5.1569  -5.0881  -1.8841  -1.1740  -1.1427  -1.0102
    -0.5422  -0.5066  -0.4352  -0.3918  -0.2940  -0.2910   0.0344   0.0715

          k = 0.2496 0.0000 0.3622 ( 26876 PWs)   bands (ev):

   -24.8992 -24.8968 -10.2208 -10.2069 -10.1765 -10.1381 -10.0926 -10.0715
    -5.8991  -5.4266  -5.2646  -5.2352  -1.6938  -1.4940  -1.3228  -0.9219
    -0.8775  -0.6702  -0.4621  -0.3390  -0.2387  -0.1080   0.0459   0.0680

          k = 0.2496 0.0000-0.7244 ( 26858 PWs)   bands (ev):

   -24.8940 -24.8940 -10.3591 -10.3590 -10.1016 -10.1015 -10.0881 -10.0881
    -5.4596  -5.4593  -5.2965  -5.2962  -1.8892  -1.8888  -1.1340  -1.1337
    -0.5987  -0.5984  -0.3487  -0.3473  -0.2250  -0.2248  -0.0157  -0.0154

          k = 0.2496 0.2434 0.0000 ( 26888 PWs)   bands (ev):

   -24.9032 -24.9008 -10.2593 -10.1870 -10.1444 -10.0714 -10.0194  -9.9999
    -6.1312  -5.6155  -5.3254  -5.1349  -1.6523  -1.3787  -1.1576  -0.7539
    -0.6725  -0.6384  -0.4033  -0.2612  -0.2539  -0.1807  -0.1219   0.0049

          k = 0.2496 0.2434 0.3622 ( 26870 PWs)   bands (ev):

   -24.8989 -24.8971 -10.2207 -10.1988 -10.1964 -10.1289 -10.0953 -10.0689
    -5.8223  -5.4347  -5.3527  -5.2420  -1.6592  -1.4315  -1.3893  -0.9161
    -0.7477  -0.6070  -0.5142  -0.3284  -0.2465  -0.1444  -0.0207   0.0513

          k = 0.2496 0.2434-0.7244 ( 26828 PWs)   bands (ev):

   -24.8940 -24.8940 -10.3641 -10.3491 -10.1124 -10.0939 -10.0893 -10.0891
    -5.6169  -5.5027  -5.2499  -5.1337  -1.8665  -1.8095  -1.1834  -1.1310
    -0.6329  -0.6272  -0.3631  -0.3396  -0.1905  -0.1780  -0.0581  -0.0281

          k = 0.2496-0.4869 0.0000 ( 26888 PWs)   bands (ev):

   -24.9020 -24.9020 -10.2417 -10.2417 -10.0920 -10.0920 -10.0095 -10.0095
    -5.8293  -5.8293  -5.3044  -5.3044  -1.4319  -1.4319  -0.9361  -0.9361
    -0.7279  -0.7279  -0.3350  -0.3350  -0.1375  -0.1375  -0.1192  -0.1192

          k = 0.2496-0.4869 0.3622 ( 26866 PWs)   bands (ev):

   -24.8980 -24.8980 -10.2189 -10.2189 -10.1605 -10.1605 -10.0764 -10.0764
    -5.6283  -5.6283  -5.3101  -5.3101  -1.5742  -1.5742  -1.1173  -1.1173
    -0.6192  -0.6192  -0.3517  -0.3517  -0.2441  -0.2441  -0.0406  -0.0406

          k = 0.2496-0.4869-0.7244 ( 26864 PWs)   bands (ev):

   -24.8940 -24.8940 -10.3547 -10.3547 -10.1026 -10.1026 -10.0918 -10.0918
    -5.6340  -5.6340  -5.1133  -5.1133  -1.7754  -1.7754  -1.2253  -1.2253
    -0.5389  -0.5389  -0.4187  -0.4187  -0.2072  -0.2072  -0.0333  -0.0333

          k =-0.4991 0.0000 0.0000 ( 26894 PWs)   bands (ev):

   -24.9020 -24.9020 -10.1873 -10.1873 -10.1493 -10.1493 -10.0097 -10.0097
    -5.9099  -5.9099  -5.1772  -5.1772  -1.5203  -1.5203  -0.8372  -0.8372
    -0.5095  -0.5095  -0.5022  -0.5022  -0.3966  -0.3966  -0.0532  -0.0532

          k =-0.4991 0.0000 0.3622 ( 26906 PWs)   bands (ev):

   -24.8980 -24.8980 -10.2258 -10.2258 -10.1421 -10.1421 -10.0898 -10.0898
    -5.6200  -5.6200  -5.2953  -5.2953  -1.6134  -1.6134  -1.1598  -1.1598
    -0.6367  -0.6367  -0.4692  -0.4692  -0.1397  -0.1397   0.0317   0.0317

          k =-0.4991 0.0000-0.7244 ( 26864 PWs)   bands (ev):

   -24.8940 -24.8940 -10.3699 -10.3699 -10.0973 -10.0973 -10.0831 -10.0831
    -5.4716  -5.4716  -5.2636  -5.2636  -2.0710  -2.0710  -0.9196  -0.9196
    -0.6139  -0.6139  -0.4443  -0.4443  -0.0699  -0.0699  -0.0390  -0.0390

          k =-0.4991 0.2434 0.0000 ( 26878 PWs)   bands (ev):

   -24.9020 -24.9020 -10.2409 -10.2409 -10.0950 -10.0950 -10.0095 -10.0095
    -5.8650  -5.8650  -5.2438  -5.2438  -1.4386  -1.4386  -0.8440  -0.8440
    -0.6681  -0.6681  -0.5309  -0.5309  -0.2148  -0.2148  -0.0732  -0.0732

          k =-0.4991 0.2434 0.3622 ( 26896 PWs)   bands (ev):

   -24.8980 -24.8980 -10.2195 -10.2195 -10.1638 -10.1638 -10.0754 -10.0754
    -5.5781  -5.5781  -5.3433  -5.3433  -1.6179  -1.6179  -1.1481  -1.1481
    -0.6010  -0.6010  -0.4216  -0.4216  -0.1508  -0.1508  -0.0227  -0.0227

          k =-0.4991 0.2434-0.7244 ( 26848 PWs)   bands (ev):

   -24.8940 -24.8940 -10.3574 -10.3574 -10.1039 -10.1039 -10.0915 -10.0915
    -5.5089  -5.5089  -5.2227  -5.2227  -1.9912  -1.9912  -1.0906  -1.0906
    -0.5695  -0.5695  -0.3955  -0.3955  -0.1076  -0.1076   0.0048   0.0048

          k =-0.4991-0.4869 0.0000 ( 26844 PWs)   bands (ev):

   -24.9020 -24.9020 -10.2689 -10.2689 -10.0663 -10.0663 -10.0094 -10.0094
    -5.8093  -5.8093  -5.3208  -5.3208  -1.3193  -1.3193  -0.9734  -0.9734
    -0.7503  -0.7503  -0.3488  -0.3488  -0.2148  -0.2148  -0.1165  -0.1165

          k =-0.4991-0.4869 0.3622 ( 26840 PWs)   bands (ev):

   -24.8980 -24.8980 -10.2086 -10.2086 -10.1851 -10.1851 -10.0659 -10.0659
    -5.5014  -5.5014  -5.4261  -5.4261  -1.6017  -1.6017  -1.1995  -1.1995
    -0.4614  -0.4614  -0.3484  -0.3484  -0.2132  -0.2132  -0.1138  -0.1138

          k =-0.4991-0.4869-0.7244 ( 26824 PWs)   bands (ev):

   -24.8940 -24.8940 -10.3435 -10.3435 -10.1165 -10.1165 -10.0954 -10.0954
    -5.5378  -5.5378  -5.1900  -5.1900  -1.8627  -1.8627  -1.3348  -1.3348
    -0.3842  -0.3842  -0.3473  -0.3473  -0.1999  -0.1999  -0.0161  -0.0161

     highest occupied level (ev):     0.1193

!    total energy              =    -156.46062750 Ry
     estimated scf accuracy    <          1.0E-12 Ry

     The total energy is the sum of the following terms:
     one-electron contribution =     -29.44776216 Ry
     hartree contribution      =      27.72027273 Ry
     xc contribution           =     -48.86860916 Ry
     ewald contribution        =    -105.86452892 Ry

     convergence has been achieved in  13 iterations

     Forces acting on atoms (cartesian axes, Ry/au):

     atom    1 type  2   force =     0.00000000    0.00000000    0.00000387
     atom    2 type  2   force =     0.00000000    0.00000000   -0.00000387
     atom    3 type  1   force =     0.00069630    0.00241950   -0.00000764
     atom    4 type  1   force =    -0.00069630   -0.00241950   -0.00000764
     atom    5 type  1   force =     0.00069630   -0.00241950    0.00000764
     atom    6 type  1   force =    -0.00069630    0.00241950    0.00000764
     atom    7 type  3   force =     0.00423828   -0.00011956   -0.00001118
     atom    8 type  3   force =    -0.00423828    0.00011956   -0.00001118
     atom    9 type  3   force =     0.00423828    0.00011956    0.00001118
     atom   10 type  3   force =    -0.00423828   -0.00011956    0.00001118
     atom   11 type  3   force =    -0.00237750   -0.00103786    0.00000123
     atom   12 type  3   force =     0.00237750    0.00103786    0.00000123
     atom   13 type  3   force =    -0.00237750    0.00103786   -0.00000123
     atom   14 type  3   force =     0.00237750   -0.00103786   -0.00000123
     atom   15 type  3   force =     0.00041914    0.00273329    0.00258013
     atom   16 type  3   force =    -0.00041914   -0.00273329    0.00258013
     atom   17 type  3   force =     0.00041914   -0.00273329   -0.00258013
     atom   18 type  3   force =    -0.00041914    0.00273329   -0.00258013
     atom   19 type  3   force =    -0.00038745   -0.00274345   -0.00259128
     atom   20 type  3   force =     0.00038745    0.00274345   -0.00259128
     atom   21 type  3   force =    -0.00038745    0.00274345    0.00259128
     atom   22 type  3   force =     0.00038745   -0.00274345    0.00259128

     Total force =     0.015458     Total SCF correction =     0.000000


     Computing stress (Cartesian axis) and pressure

          total   stress  (Ry/bohr**3)                   (kbar)     P=      -26.74
  -0.00016794   0.00000000   0.00000000          -24.70        0.00        0.00
   0.00000000  -0.00017062   0.00000000            0.00      -25.10        0.00
   0.00000000   0.00000000  -0.00020684            0.00        0.00      -30.43

     Volume is kept fixed: isostatic pressure set to zero
     Energy error            =      8.1E-03 Ry
     Gradient error          =      4.2E-03 Ry/Bohr
     Cell gradient error     =      3.7E+00 kbar

     number of scf cycles    =   3
     number of bfgs steps    =   2

     enthalpy           old  =    -156.4525753605 Ry
     enthalpy           new  =    -156.4606275008 Ry

     CASE: enthalpy          _new < enthalpy          _old

     new trust radius        =       0.0111566206 bohr
ibrav =      8
 celldm(1) =     13.11635651
 celldm(2) =      1.02499534
 celldm(3) =      0.68790469
Input lattice vectors:
     1.00235827     0.00000000     0.00000000
     0.00000000     1.02741256     0.00000000
     0.00000000     0.00000000     0.68952696
New lattice vectors in INITIAL alat:
     1.00235827     0.00000000     0.00000000
     0.00000000     1.02741256     0.00000000
     0.00000000     0.00000000     0.68952696
New lattice vectors in NEW alat (for information only):
     1.00000000     0.00000000     0.00000000
     0.00000000     1.02499534     0.00000000
     0.00000000     0.00000000     0.68790469
Discrepancy in bohr =     0.000000    0.000000    0.000000
     new conv_thr            =            1.0E-10 Ry

     new unit-cell volume =   1591.07187 a.u.^3 (   235.77253 Ang^3 )
     density =      2.35253 g/cm^3

CELL_PARAMETERS (alat= 13.08549736)
   1.002358271   0.000000000   0.000000000
   0.000000000   1.027412555   0.000000000
   0.000000000   0.000000000   0.689526955

ATOMIC_POSITIONS (crystal)
Ba               0.5000000000        0.5000000000        0.5001022596
Ba               0.0000000000        0.0000000000        0.9998977404
B                0.6105210064        0.2402628531        0.0000597715
B                0.3894789936        0.7597371469        0.0000597715
B                0.1105210064        0.2597371469        0.4999402285
B                0.8894789936        0.7402628531        0.4999402285
H                0.4401772592        0.2907969022        0.0002211852
H                0.5598227408        0.7092030978        0.0002211852
H                0.9401772592        0.2092030978        0.4997788148
H                0.0598227408        0.7907969022        0.4997788148
H                0.7180774435        0.3791454288       -0.0000052026
H                0.2819225565        0.6208545712       -0.0000052026
H                0.2180774435        0.1208545712        0.5000052026
H                0.7819225565        0.8791454288        0.5000052026
H                0.6386522259        0.1456008459        0.7880065109
H                0.3613477741        0.8543991541        0.7880065109
H                0.1386522259        0.3543991541        0.7119934891
H                0.8613477741        0.6456008459        0.7119934891
H                0.3611493546        0.8544435593        0.2120129261
H                0.6388506454        0.1455564407        0.2120129261
H                0.8611493546        0.6455564407        0.2879870739
H                0.1388506454        0.3544435593        0.2879870739



     Writing config-only to output data dir ./pwscf.save/ :
     XML data file
     NEW-OLD atomic charge density approx. for the potential

     total cpu time spent up to now is      819.1 secs

     Self-consistent Calculation

     iteration #  1     ecut=   100.00 Ry     beta= 0.70
     Davidson diagonalization with overlap
     ethr =  1.00E-06,  avg # of iterations =  4.0

     total cpu time spent up to now is      842.9 secs

     total energy              =    -156.46087444 Ry
     estimated scf accuracy    <       0.00041147 Ry

     iteration #  2     ecut=   100.00 Ry     beta= 0.70
     Davidson diagonalization with overlap
     ethr =  8.57E-07,  avg # of iterations =  2.0

     total cpu time spent up to now is      860.7 secs

     total energy              =    -156.46098859 Ry
     estimated scf accuracy    <       0.00008335 Ry

     iteration #  3     ecut=   100.00 Ry     beta= 0.70
     Davidson diagonalization with overlap
     ethr =  1.74E-07,  avg # of iterations =  2.0

     total cpu time spent up to now is      878.4 secs

     total energy              =    -156.46100053 Ry
     estimated scf accuracy    <       0.00000090 Ry

     iteration #  4     ecut=   100.00 Ry     beta= 0.70
     Davidson diagonalization with overlap
     ethr =  1.88E-09,  avg # of iterations =  3.3

     total cpu time spent up to now is      900.2 secs

     total energy              =    -156.46100101 Ry
     estimated scf accuracy    <       0.00000056 Ry

     iteration #  5     ecut=   100.00 Ry     beta= 0.70
     Davidson diagonalization with overlap
     ethr =  1.17E-09,  avg # of iterations =  2.0

     total cpu time spent up to now is      917.9 secs

     total energy              =    -156.46100109 Ry
     estimated scf accuracy    <       0.00000001 Ry

     iteration #  6     ecut=   100.00 Ry     beta= 0.70
     Davidson diagonalization with overlap
     ethr =  2.19E-11,  avg # of iterations =  5.9

     total cpu time spent up to now is      944.3 secs

     total energy              =    -156.46100110 Ry
     estimated scf accuracy    <          6.5E-09 Ry

     iteration #  7     ecut=   100.00 Ry     beta= 0.70
     Davidson diagonalization with overlap
     ethr =  1.35E-11,  avg # of iterations =  2.0

     total cpu time spent up to now is      962.0 secs

     End of self-consistent calculation

          k = 0.0000 0.0000 0.0000 ( 26879 PWs)   bands (ev):

   -24.9121 -24.9073 -10.2765 -10.2223 -10.0977 -10.0750 -10.0364  -9.9977
    -6.4158  -5.6256  -5.1675  -5.0066  -2.0523  -1.2755  -1.2566  -0.9318
    -0.5687  -0.5561  -0.5483  -0.4054  -0.2572   0.0398   0.0673   0.0930

          k = 0.0000 0.0000 0.3626 ( 26855 PWs)   bands (ev):

   -24.9074 -24.9039 -10.2127 -10.2061 -10.1875 -10.1776 -10.0864 -10.0749
    -6.0370  -5.4458  -5.2778  -5.1688  -1.7324  -1.5161  -1.0637  -1.0588
    -0.9419  -0.8488  -0.5464  -0.3120  -0.1174  -0.1106  -0.0381   0.0815

          k = 0.0000 0.0000-0.7251 ( 26860 PWs)   bands (ev):

   -24.9016 -24.9016 -10.3580 -10.3579 -10.1156 -10.1156 -10.0983 -10.0983
    -5.4685  -5.4681  -5.3623  -5.3619  -1.4954  -1.4950  -1.4767  -1.4754
    -0.6192  -0.6184  -0.5722  -0.5708  -0.0953  -0.0952  -0.0746  -0.0743

          k = 0.0000 0.2433 0.0000 ( 26861 PWs)   bands (ev):

   -24.9114 -24.9080 -10.2566 -10.2043 -10.1268 -10.0961 -10.0306 -10.0033
    -6.2630  -5.5639  -5.3726  -5.1021  -1.7697  -1.4287  -1.3274  -0.6659
    -0.6530  -0.6478  -0.3804  -0.2770  -0.2292  -0.1898  -0.0322   0.0433

          k = 0.0000 0.2433 0.3626 ( 26856 PWs)   bands (ev):

   -24.9069 -24.9044 -10.2363 -10.2074 -10.1655 -10.1618 -10.0901 -10.0872
    -5.9472  -5.4964  -5.3184  -5.2057  -1.5696  -1.5376  -1.3251  -0.8611
    -0.8358  -0.6786  -0.6464  -0.2710  -0.1806  -0.1694  -0.0548  -0.0091

          k = 0.0000 0.2433-0.7251 ( 26868 PWs)   bands (ev):

   -24.9016 -24.9016 -10.3668 -10.3668 -10.1050 -10.1050 -10.0978 -10.0978
    -5.6453  -5.6452  -5.1803  -5.1803  -1.5819  -1.5813  -1.3493  -1.3487
    -0.5557  -0.5550  -0.5409  -0.5399  -0.2210  -0.2209  -0.0837  -0.0834

          k = 0.0000-0.4867 0.0000 ( 26906 PWs)   bands (ev):

   -24.9097 -24.9097 -10.2052 -10.2052 -10.1427 -10.1427 -10.0168 -10.0168
    -5.8725  -5.8725  -5.3171  -5.3171  -1.5290  -1.5290  -0.9387  -0.9387
    -0.7092  -0.7092  -0.3178  -0.3178  -0.1687  -0.1687  -0.0697  -0.0697

          k = 0.0000-0.4867 0.3626 ( 26846 PWs)   bands (ev):

   -24.9056 -24.9056 -10.2333 -10.2333 -10.1385 -10.1385 -10.1038 -10.1038
    -5.7212  -5.7212  -5.2813  -5.2813  -1.5155  -1.5155  -1.1440  -1.1440
    -0.6469  -0.6469  -0.3875  -0.3875  -0.2707  -0.2707  -0.0729  -0.0729

          k = 0.0000-0.4867-0.7251 ( 26844 PWs)   bands (ev):

   -24.9016 -24.9016 -10.3750 -10.3750 -10.1000 -10.1000 -10.0924 -10.0924
    -5.7352  -5.7352  -5.0856  -5.0856  -1.6554  -1.6554  -1.1644  -1.1644
    -0.5999  -0.5999  -0.4665  -0.4665  -0.3901  -0.3901  -0.0520  -0.0520

          k = 0.2494 0.0000 0.0000 ( 26902 PWs)   bands (ev):

   -24.9114 -24.9080 -10.2519 -10.2091 -10.1234 -10.1037 -10.0306 -10.0033
    -6.2710  -5.6757  -5.1857  -5.1177  -1.8896  -1.1829  -1.1562  -1.0255
    -0.5452  -0.5163  -0.4423  -0.4113  -0.3120  -0.2984   0.0113   0.0453

          k = 0.2494 0.0000 0.3626 ( 26876 PWs)   bands (ev):

   -24.9068 -24.9044 -10.2292 -10.2153 -10.1846 -10.1462 -10.0999 -10.0790
    -5.9199  -5.4535  -5.2948  -5.2659  -1.6936  -1.5007  -1.3250  -0.9329
    -0.8919  -0.6804  -0.4779  -0.3570  -0.2532  -0.1258   0.0223   0.0483

          k = 0.2494 0.0000-0.7251 ( 26858 PWs)   bands (ev):

   -24.9016 -24.9016 -10.3694 -10.3693 -10.1085 -10.1085 -10.0955 -10.0954
    -5.4877  -5.4874  -5.3236  -5.3233  -1.8875  -1.8871  -1.1380  -1.1377
    -0.6153  -0.6150  -0.3649  -0.3635  -0.2443  -0.2441  -0.0361  -0.0359

          k = 0.2494 0.2433 0.0000 ( 26888 PWs)   bands (ev):

   -24.9109 -24.9085 -10.2674 -10.1954 -10.1517 -10.0790 -10.0265 -10.0071
    -6.1532  -5.6444  -5.3517  -5.1638  -1.6609  -1.3883  -1.1698  -0.7695
    -0.6775  -0.6442  -0.4230  -0.2753  -0.2695  -0.1891  -0.1438  -0.0174

          k = 0.2494 0.2433 0.3626 ( 26870 PWs)   bands (ev):

   -24.9065 -24.9048 -10.2291 -10.2066 -10.2050 -10.1371 -10.1027 -10.0762
    -5.8441  -5.4621  -5.3807  -5.2722  -1.6600  -1.4347  -1.3967  -0.9269
    -0.7616  -0.6178  -0.5290  -0.3437  -0.2664  -0.1631  -0.0399   0.0309

          k = 0.2494 0.2433-0.7251 ( 26828 PWs)   bands (ev):

   -24.9016 -24.9016 -10.3744 -10.3594 -10.1192 -10.1011 -10.0967 -10.0962
    -5.6450  -5.5302  -5.2775  -5.1606  -1.8655  -1.8081  -1.1876  -1.1344
    -0.6503  -0.6439  -0.3766  -0.3553  -0.2134  -0.1965  -0.0748  -0.0523

          k = 0.2494-0.4867 0.0000 ( 26888 PWs)   bands (ev):

   -24.9097 -24.9097 -10.2498 -10.2498 -10.0996 -10.0996 -10.0167 -10.0167
    -5.8544  -5.8544  -5.3316  -5.3316  -1.4420  -1.4420  -0.9513  -0.9513
    -0.7328  -0.7328  -0.3548  -0.3548  -0.1464  -0.1464  -0.1405  -0.1405

          k = 0.2494-0.4867 0.3626 ( 26866 PWs)   bands (ev):

   -24.9056 -24.9056 -10.2271 -10.2271 -10.1687 -10.1687 -10.0838 -10.0838
    -5.6530  -5.6530  -5.3388  -5.3388  -1.5765  -1.5765  -1.1274  -1.1274
    -0.6311  -0.6311  -0.3671  -0.3671  -0.2642  -0.2642  -0.0592  -0.0592

          k = 0.2494-0.4867-0.7251 ( 26864 PWs)   bands (ev):

   -24.9016 -24.9016 -10.3650 -10.3650 -10.1095 -10.1095 -10.0991 -10.0991
    -5.6618  -5.6618  -5.1403  -5.1403  -1.7749  -1.7749  -1.2289  -1.2289
    -0.5561  -0.5561  -0.4340  -0.4340  -0.2268  -0.2268  -0.0542  -0.0542

          k =-0.4988 0.0000 0.0000 ( 26894 PWs)   bands (ev):

   -24.9097 -24.9097 -10.1959 -10.1959 -10.1564 -10.1564 -10.0168 -10.0168
    -5.9341  -5.9341  -5.2064  -5.2064  -1.5286  -1.5286  -0.8493  -0.8493
    -0.5292  -0.5292  -0.5062  -0.5062  -0.4061  -0.4061  -0.0782  -0.0782

          k =-0.4988 0.0000 0.3626 ( 26906 PWs)   bands (ev):

   -24.9056 -24.9056 -10.2343 -10.2343 -10.1499 -10.1499 -10.0973 -10.0973
    -5.6439  -5.6439  -5.3255  -5.3255  -1.6134  -1.6134  -1.1697  -1.1697
    -0.6510  -0.6510  -0.4851  -0.4851  -0.1550  -0.1550   0.0095   0.0095

          k =-0.4988 0.0000-0.7251 ( 26864 PWs)   bands (ev):

   -24.9016 -24.9016 -10.3800 -10.3800 -10.1043 -10.1043 -10.0904 -10.0904
    -5.5026  -5.5026  -5.2881  -5.2881  -2.0681  -2.0681  -0.9248  -0.9248
    -0.6305  -0.6305  -0.4614  -0.4614  -0.0864  -0.0864  -0.0620  -0.0620

          k =-0.4988 0.2433 0.0000 ( 26878 PWs)   bands (ev):

   -24.9097 -24.9097 -10.2489 -10.2489 -10.1026 -10.1026 -10.0167 -10.0167
    -5.8904  -5.8904  -5.2712  -5.2712  -1.4491  -1.4491  -0.8573  -0.8573
    -0.6729  -0.6729  -0.5489  -0.5489  -0.2237  -0.2237  -0.0970  -0.0970

          k =-0.4988 0.2433 0.3626 ( 26896 PWs)   bands (ev):

   -24.9056 -24.9056 -10.2277 -10.2277 -10.1719 -10.1719 -10.0828 -10.0828
    -5.6028  -5.6028  -5.3724  -5.3724  -1.6186  -1.6186  -1.1581  -1.1581
    -0.6163  -0.6163  -0.4365  -0.4365  -0.1671  -0.1671  -0.0434  -0.0434

          k =-0.4988 0.2433-0.7251 ( 26848 PWs)   bands (ev):

   -24.9015 -24.9015 -10.3677 -10.3677 -10.1109 -10.1109 -10.0988 -10.0988
    -5.5385  -5.5385  -5.2485  -5.2485  -1.9886  -1.9886  -1.0955  -1.0955
    -0.5869  -0.5869  -0.4117  -0.4117  -0.1282  -0.1282  -0.0145  -0.0145

          k =-0.4988-0.4867 0.0000 ( 26844 PWs)   bands (ev):

   -24.9097 -24.9097 -10.2769 -10.2769 -10.0739 -10.0739 -10.0165 -10.0165
    -5.8363  -5.8363  -5.3458  -5.3458  -1.3336  -1.3336  -0.9847  -0.9847
    -0.7548  -0.7548  -0.3697  -0.3697  -0.2342  -0.2342  -0.1259  -0.1259

          k =-0.4988-0.4867 0.3626 ( 26840 PWs)   bands (ev):

   -24.9056 -24.9056 -10.2161 -10.2161 -10.1941 -10.1941 -10.0733 -10.0733
    -5.5278  -5.5278  -5.4531  -5.4531  -1.6030  -1.6030  -1.2093  -1.2093
    -0.4751  -0.4751  -0.3677  -0.3677  -0.2324  -0.2324  -0.1287  -0.1287

          k =-0.4988-0.4867-0.7251 ( 26824 PWs)   bands (ev):

   -24.9015 -24.9015 -10.3539 -10.3539 -10.1233 -10.1233 -10.1027 -10.1027
    -5.5667  -5.5667  -5.2165  -5.2165  -1.8605  -1.8605  -1.3389  -1.3389
    -0.4000  -0.4000  -0.3678  -0.3678  -0.2209  -0.2209  -0.0331  -0.0331

     highest occupied level (ev):     0.0930

!    total energy              =    -156.46100111 Ry
     estimated scf accuracy    <          5.9E-11 Ry

     The total energy is the sum of the following terms:
     one-electron contribution =     -29.79872452 Ry
     hartree contribution      =      27.89687107 Ry
     xc contribution           =     -48.90800674 Ry
     ewald contribution        =    -105.65114091 Ry

     convergence has been achieved in   7 iterations

     Forces acting on atoms (cartesian axes, Ry/au):

     atom    1 type  2   force =     0.00000000    0.00000000    0.00000291
     atom    2 type  2   force =     0.00000000    0.00000000   -0.00000291
     atom    3 type  1   force =     0.00071109    0.00175603   -0.00000778
     atom    4 type  1   force =    -0.00071109   -0.00175603   -0.00000778
     atom    5 type  1   force =     0.00071109   -0.00175603    0.00000778
     atom    6 type  1   force =    -0.00071109    0.00175603    0.00000778
     atom    7 type  3   force =     0.00061953    0.00095190   -0.00000967
     atom    8 type  3   force =    -0.00061953   -0.00095190   -0.00000967
     atom    9 type  3   force =     0.00061953   -0.00095190    0.00000967
     atom   10 type  3   force =    -0.00061953    0.00095190    0.00000967
     atom   11 type  3   force =     0.00016511    0.00231850   -0.00000020
     atom   12 type  3   force =    -0.00016511   -0.00231850   -0.00000020
     atom   13 type  3   force =     0.00016511   -0.00231850    0.00000020
     atom   14 type  3   force =    -0.00016511    0.00231850    0.00000020
     atom   15 type  3   force =     0.00098278    0.00085933   -0.00076902
     atom   16 type  3   force =    -0.00098278   -0.00085933   -0.00076902
     atom   17 type  3   force =     0.00098278   -0.00085933    0.00076902
     atom   18 type  3   force =    -0.00098278    0.00085933    0.00076902
     atom   19 type  3   force =    -0.00095782   -0.00086599    0.00075885
     atom   20 type  3   force =     0.00095782    0.00086599    0.00075885
     atom   21 type  3   force =    -0.00095782    0.00086599   -0.00075885
     atom   22 type  3   force =     0.00095782   -0.00086599   -0.00075885

     Total force =     0.007700     Total SCF correction =     0.000004


     Computing stress (Cartesian axis) and pressure

          total   stress  (Ry/bohr**3)                   (kbar)     P=      -22.33
  -0.00013948   0.00000000   0.00000000          -20.52        0.00        0.00
   0.00000000  -0.00014267   0.00000000            0.00      -20.99        0.00
   0.00000000   0.00000000  -0.00017325            0.00        0.00      -25.49

     Volume is kept fixed: isostatic pressure set to zero
     Energy error            =      3.7E-04 Ry
     Gradient error          =      2.3E-03 Ry/Bohr
     Cell gradient error     =      3.2E+00 kbar

     number of scf cycles    =   4
     number of bfgs steps    =   3

     enthalpy           old  =    -156.4606275008 Ry
     enthalpy           new  =    -156.4610011056 Ry

     CASE: enthalpy          _new < enthalpy          _old

     new trust radius        =       0.0056263592 bohr
ibrav =      8
 celldm(1) =     13.12162083
 celldm(2) =      1.02489346
 celldm(3) =      0.68714537
Input lattice vectors:
     1.00276057     0.00000000     0.00000000
     0.00000000     1.02772275     0.00000000
     0.00000000     0.00000000     0.68904228
New lattice vectors in INITIAL alat:
     1.00276057     0.00000000     0.00000000
     0.00000000     1.02772275     0.00000000
     0.00000000     0.00000000     0.68904228
New lattice vectors in NEW alat (for information only):
     1.00000000     0.00000000     0.00000000
     0.00000000     1.02489346     0.00000000
     0.00000000     0.00000000     0.68714537
Discrepancy in bohr =     0.000000    0.000000    0.000000
     new conv_thr            =            3.7E-11 Ry

     new unit-cell volume =   1591.07187 a.u.^3 (   235.77253 Ang^3 )
     density =      2.35253 g/cm^3

CELL_PARAMETERS (alat= 13.08549736)
   1.002760573   0.000000000   0.000000000
   0.000000000   1.027722754   0.000000000
   0.000000000   0.000000000   0.689042284

ATOMIC_POSITIONS (crystal)
Ba               0.5000000000        0.5000000000        0.5001026904
Ba               0.0000000000        0.0000000000        0.9998973096
B                0.6105892791        0.2404384413        0.0000586839
B                0.3894107209        0.7595615587        0.0000586839
B                0.1105892791        0.2595615587        0.4999413161
B                0.8894107209        0.7404384413        0.4999413161
H                0.4403294562        0.2908592874        0.0002197850
H                0.5596705438        0.7091407126        0.0002197850
H                0.9403294562        0.2091407126        0.4997802150
H                0.0596705438        0.7908592874        0.4997802150
H                0.7180288456        0.3792794263       -0.0000051778
H                0.2819711544        0.6207205737       -0.0000051778
H                0.2180288456        0.1207205737        0.5000051778
H                0.7819711544        0.8792794263        0.5000051778
H                0.6387318844        0.1457303486        0.7880247167
H                0.3612681156        0.8542696514        0.7880247167
H                0.1387318844        0.3542696514        0.7119752833
H                0.8612681156        0.6457303486        0.7119752833
H                0.3610722573        0.8543133633        0.2119933146
H                0.6389277427        0.1456866367        0.2119933146
H                0.8610722573        0.6456866367        0.2880066854
H                0.1389277427        0.3543133633        0.2880066854



     Writing config-only to output data dir ./pwscf.save/ :
     XML data file
     NEW-OLD atomic charge density approx. for the potential

     total cpu time spent up to now is      996.3 secs

     Self-consistent Calculation

     iteration #  1     ecut=   100.00 Ry     beta= 0.70
     Davidson diagonalization with overlap
     ethr =  1.00E-06,  avg # of iterations =  2.0

     Threshold (ethr) on eigenvalues was too large:
     Diagonalizing with lowered threshold

     Davidson diagonalization with overlap
     ethr =  1.25E-08,  avg # of iterations =  3.0

     total cpu time spent up to now is     1033.8 secs

     total energy              =    -156.46109457 Ry
     estimated scf accuracy    <       0.00000836 Ry

     iteration #  2     ecut=   100.00 Ry     beta= 0.70
     Davidson diagonalization with overlap
     ethr =  1.74E-08,  avg # of iterations =  2.0

     total cpu time spent up to now is     1051.6 secs

     total energy              =    -156.46109624 Ry
     estimated scf accuracy    <       0.00000061 Ry

     iteration #  3     ecut=   100.00 Ry     beta= 0.70
     Davidson diagonalization with overlap
     ethr =  1.27E-09,  avg # of iterations =  2.0

     total cpu time spent up to now is     1069.3 secs

     total energy              =    -156.46109634 Ry
     estimated scf accuracy    <       0.00000002 Ry

     iteration #  4     ecut=   100.00 Ry     beta= 0.70
     Davidson diagonalization with overlap
     ethr =  5.07E-11,  avg # of iterations =  4.4

     total cpu time spent up to now is     1090.4 secs

     total energy              =    -156.46109635 Ry
     estimated scf accuracy    <          2.7E-09 Ry

     iteration #  5     ecut=   100.00 Ry     beta= 0.70
     Davidson diagonalization with overlap
     ethr =  5.64E-12,  avg # of iterations =  5.1

     total cpu time spent up to now is     1114.7 secs

     total energy              =    -156.46109635 Ry
     estimated scf accuracy    <          1.3E-10 Ry

     iteration #  6     ecut=   100.00 Ry     beta= 0.70
     Davidson diagonalization with overlap
     ethr =  2.80E-13,  avg # of iterations =  5.1

     total cpu time spent up to now is     1138.8 secs

     End of self-consistent calculation

          k = 0.0000 0.0000 0.0000 ( 26879 PWs)   bands (ev):

   -24.9112 -24.9064 -10.2764 -10.2221 -10.0974 -10.0745 -10.0355  -9.9969
    -6.4177  -5.6283  -5.1700  -5.0097  -2.0558  -1.2775  -1.2587  -0.9365
    -0.5671  -0.5612  -0.5442  -0.4043  -0.2538   0.0362   0.0643   0.0869

          k = 0.0000 0.0000 0.3628 ( 26855 PWs)   bands (ev):

   -24.9064 -24.9030 -10.2122 -10.2065 -10.1880 -10.1771 -10.0859 -10.0742
    -6.0377  -5.4471  -5.2811  -5.1725  -1.7341  -1.5180  -1.0660  -1.0608
    -0.9421  -0.8474  -0.5475  -0.3130  -0.1224  -0.1130  -0.0395   0.0765

          k = 0.0000 0.0000-0.7256 ( 26860 PWs)   bands (ev):

   -24.9006 -24.9006 -10.3594 -10.3593 -10.1147 -10.1146 -10.0977 -10.0976
    -5.4683  -5.4679  -5.3664  -5.3660  -1.4947  -1.4942  -1.4787  -1.4773
    -0.6209  -0.6201  -0.5739  -0.5726  -0.1004  -0.1004  -0.0772  -0.0769

          k = 0.0000 0.2433 0.0000 ( 26861 PWs)   bands (ev):

   -24.9105 -24.9071 -10.2564 -10.2041 -10.1264 -10.0955 -10.0298 -10.0025
    -6.2651  -5.5674  -5.3742  -5.1049  -1.7739  -1.4312  -1.3294  -0.6706
    -0.6497  -0.6454  -0.3856  -0.2752  -0.2347  -0.1873  -0.0357   0.0400

          k = 0.0000 0.2433 0.3628 ( 26856 PWs)   bands (ev):

[...]
        18        H      tau(  18) = (   0.8504717   0.6979878   0.4793389  )
        19        H      tau(  19) = (   0.3310984   0.8462063   0.1473379  )
        20        H      tau(  20) = (   0.7076495   0.1832562   0.1473379  )
        21        H      tau(  21) = (   0.8504723   0.6979874   0.1846853  )
        22        H      tau(  22) = (   0.1882756   0.3314751   0.1846853  )

     number of k points=    27
                       cart. coord. in units 2pi/alat
        k(    1) = (   0.0000000   0.0000000   0.0000000), wk =   0.0312500
        k(    2) = (   0.0000000   0.0000000   0.3764797), wk =   0.0625000
        k(    3) = (   0.0000000   0.0000000  -0.7529595), wk =   0.0312500
        k(    4) = (   0.0000000   0.2428452   0.0000000), wk =   0.0625000
        k(    5) = (   0.0000000   0.2428452   0.3764797), wk =   0.1250000
        k(    6) = (   0.0000000   0.2428452  -0.7529595), wk =   0.0625000
        k(    7) = (   0.0000000  -0.4856903   0.0000000), wk =   0.0312500
        k(    8) = (   0.0000000  -0.4856903   0.3764797), wk =   0.0625000
        k(    9) = (   0.0000000  -0.4856903  -0.7529595), wk =   0.0312500
        k(   10) = (   0.2406744   0.0000000   0.0000000), wk =   0.0625000
        k(   11) = (   0.2406744   0.0000000   0.3764797), wk =   0.1250000
        k(   12) = (   0.2406744   0.0000000  -0.7529595), wk =   0.0625000
        k(   13) = (   0.2406744   0.2428452   0.0000000), wk =   0.1250000
        k(   14) = (   0.2406744   0.2428452   0.3764797), wk =   0.2500000
        k(   15) = (   0.2406744   0.2428452  -0.7529595), wk =   0.1250000
        k(   16) = (   0.2406744  -0.4856903   0.0000000), wk =   0.0625000
        k(   17) = (   0.2406744  -0.4856903   0.3764797), wk =   0.1250000
        k(   18) = (   0.2406744  -0.4856903  -0.7529595), wk =   0.0625000
        k(   19) = (  -0.4813487   0.0000000   0.0000000), wk =   0.0312500
        k(   20) = (  -0.4813487   0.0000000   0.3764797), wk =   0.0625000
        k(   21) = (  -0.4813487   0.0000000  -0.7529595), wk =   0.0312500
        k(   22) = (  -0.4813487   0.2428452   0.0000000), wk =   0.0625000
        k(   23) = (  -0.4813487   0.2428452   0.3764797), wk =   0.1250000
        k(   24) = (  -0.4813487   0.2428452  -0.7529595), wk =   0.0625000
        k(   25) = (  -0.4813487  -0.4856903   0.0000000), wk =   0.0312500
        k(   26) = (  -0.4813487  -0.4856903   0.3764797), wk =   0.0625000
        k(   27) = (  -0.4813487  -0.4856903  -0.7529595), wk =   0.0312500

     Dense  grid:   607945 G-vectors     FFT dimensions: ( 128, 128,  80)

     Smooth grid:   214893 G-vectors     FFT dimensions: (  90,  90,  60)

     Estimated max dynamical RAM per process >      98.15 MB

     Estimated total dynamical RAM >       2.30 GB

     Initial potential from superposition of free atoms

     starting charge      47.9682, renormalised to      48.0000
     Starting wfcs are   42 randomized atomic wfcs

     total cpu time spent up to now is    11949.8 secs

     Self-consistent Calculation

     iteration #  1     ecut=   100.00 Ry     beta= 0.70
     Davidson diagonalization with overlap
     ethr =  1.00E-06,  avg # of iterations = 11.1

     total cpu time spent up to now is    12002.5 secs

     total energy              =    -155.81901661 Ry
     estimated scf accuracy    <       2.31670131 Ry

     iteration #  2     ecut=   100.00 Ry     beta= 0.70
     Davidson diagonalization with overlap
     ethr =  4.83E-03,  avg # of iterations =  2.0

     total cpu time spent up to now is    12019.3 secs

     total energy              =    -156.39030093 Ry
     estimated scf accuracy    <       0.47766365 Ry

     iteration #  3     ecut=   100.00 Ry     beta= 0.70
     Davidson diagonalization with overlap
     ethr =  9.95E-04,  avg # of iterations =  2.0

     total cpu time spent up to now is    12036.2 secs

     total energy              =    -156.46596440 Ry
     estimated scf accuracy    <       0.00572302 Ry

     iteration #  4     ecut=   100.00 Ry     beta= 0.70
     Davidson diagonalization with overlap
     ethr =  1.19E-05,  avg # of iterations =  3.4

     total cpu time spent up to now is    12057.2 secs

     total energy              =    -156.46815726 Ry
     estimated scf accuracy    <       0.00233066 Ry

     iteration #  5     ecut=   100.00 Ry     beta= 0.70
     Davidson diagonalization with overlap
     ethr =  4.86E-06,  avg # of iterations =  3.2

     total cpu time spent up to now is    12074.8 secs

     total energy              =    -156.46881646 Ry
     estimated scf accuracy    <       0.00006080 Ry

     iteration #  6     ecut=   100.00 Ry     beta= 0.70
     Davidson diagonalization with overlap
     ethr =  1.27E-07,  avg # of iterations =  5.9

     total cpu time spent up to now is    12101.8 secs

     total energy              =    -156.46891523 Ry
     estimated scf accuracy    <       0.00001875 Ry

     iteration #  7     ecut=   100.00 Ry     beta= 0.70
     Davidson diagonalization with overlap
     ethr =  3.91E-08,  avg # of iterations =  2.9

     total cpu time spent up to now is    12119.5 secs

     total energy              =    -156.46892013 Ry
     estimated scf accuracy    <       0.00000010 Ry

     iteration #  8     ecut=   100.00 Ry     beta= 0.70
     Davidson diagonalization with overlap
     ethr =  2.12E-10,  avg # of iterations =  7.4

     total cpu time spent up to now is    12153.6 secs

     total energy              =    -156.46892060 Ry
     estimated scf accuracy    <       0.00000002 Ry

     iteration #  9     ecut=   100.00 Ry     beta= 0.70
     Davidson diagonalization with overlap
     ethr =  3.56E-11,  avg # of iterations =  3.6

     total cpu time spent up to now is    12171.8 secs

     total energy              =    -156.46892060 Ry
     estimated scf accuracy    <          4.3E-09 Ry

     iteration # 10     ecut=   100.00 Ry     beta= 0.70
     Davidson diagonalization with overlap
     ethr =  8.89E-12,  avg # of iterations =  3.1

     total cpu time spent up to now is    12190.0 secs

     total energy              =    -156.46892060 Ry
     estimated scf accuracy    <          3.9E-10 Ry

     iteration # 11     ecut=   100.00 Ry     beta= 0.70
     Davidson diagonalization with overlap
     ethr =  8.16E-13,  avg # of iterations =  5.5

     total cpu time spent up to now is    12214.5 secs

     total energy              =    -156.46892060 Ry
     estimated scf accuracy    <          1.0E-10 Ry

     iteration # 12     ecut=   100.00 Ry     beta= 0.70
     Davidson diagonalization with overlap
     ethr =  2.17E-13,  avg # of iterations =  3.3

     total cpu time spent up to now is    12233.1 secs

     total energy              =    -156.46892060 Ry
     estimated scf accuracy    <          6.3E-12 Ry

     iteration # 13     ecut=   100.00 Ry     beta= 0.70
     Davidson diagonalization with overlap
     ethr =  1.00E-13,  avg # of iterations =  1.7

     total cpu time spent up to now is    12247.1 secs

     End of self-consistent calculation

          k = 0.0000 0.0000 0.0000 ( 26943 PWs)   bands (ev):

   -24.6969 -24.6917 -10.1827 -10.1464  -9.9527  -9.9249  -9.8598  -9.8149
    -6.5589  -5.7453  -5.2186  -5.1671  -2.3086  -1.3376  -1.2597  -1.0083
    -0.9986  -0.7879  -0.7428  -0.5294  -0.2838  -0.0813  -0.0011   0.0049

          k = 0.0000 0.0000 0.3765 ( 26904 PWs)   bands (ev):

   -24.6890 -24.6853 -10.1250 -10.1082 -10.0939 -10.0683  -9.9338  -9.9154
    -6.0603  -5.4455  -5.3974  -5.3627  -1.8873  -1.7802  -1.5838  -1.0691
    -0.9817  -0.9415  -0.6188  -0.3906  -0.2471  -0.2037  -0.2000  -0.0976

          k = 0.0000 0.0000-0.7530 ( 26852 PWs)   bands (ev):

   -24.6800 -24.6800 -10.3542 -10.3542  -9.9566  -9.9566  -9.9464  -9.9464
    -5.5759  -5.5759  -5.3711  -5.3711  -1.8977  -1.8976  -1.6476  -1.6475
    -0.6546  -0.6546  -0.5965  -0.5963  -0.3035  -0.3034  -0.1796  -0.1795

          k = 0.0000 0.2428 0.0000 ( 26869 PWs)   bands (ev):

   -24.6961 -24.6924 -10.1601 -10.1243  -9.9839  -9.9532  -9.8532  -9.8215
    -6.4112  -5.7623  -5.3570  -5.2302  -2.0788  -1.5356  -1.3189  -0.7871
    -0.7643  -0.7543  -0.7393  -0.4950  -0.3374  -0.3202  -0.0872  -0.0860

          k = 0.0000 0.2428 0.3765 ( 26882 PWs)   bands (ev):

   -24.6885 -24.6859 -10.1466 -10.1246 -10.0540 -10.0497  -9.9411  -9.9316
    -5.9739  -5.5273  -5.4169  -5.3786  -1.7984  -1.7934  -1.6153  -1.0111
    -0.9409  -0.7856  -0.7075  -0.4002  -0.2984  -0.2103  -0.1978  -0.1946

          k = 0.0000 0.2428-0.7530 ( 26866 PWs)   bands (ev):

   -24.6800 -24.6800 -10.3615 -10.3614  -9.9501  -9.9501  -9.9424  -9.9424
    -5.7250  -5.7250  -5.2129  -5.2129  -2.0406  -2.0406  -1.4734  -1.4733
    -0.6348  -0.6348  -0.5322  -0.5321  -0.3342  -0.3341  -0.2578  -0.2577

          k = 0.0000-0.4857 0.0000 ( 26810 PWs)   bands (ev):

   -24.6943 -24.6943 -10.1112 -10.1112 -10.0069 -10.0069  -9.8373  -9.8373
    -6.0488  -6.0488  -5.3631  -5.3631  -1.7664  -1.7664  -0.9789  -0.9789
    -0.7762  -0.7762  -0.4774  -0.4774  -0.4084  -0.4084  -0.2313  -0.2313

          k = 0.0000-0.4857 0.3765 ( 26848 PWs)   bands (ev):

   -24.6872 -24.6872 -10.1474 -10.1474 -10.0235 -10.0235  -9.9544  -9.9544
    -5.7571  -5.7571  -5.4064  -5.4064  -1.8061  -1.8061  -1.3157  -1.3157
    -0.7590  -0.7590  -0.4994  -0.4994  -0.3797  -0.3797  -0.1926  -0.1926

          k = 0.0000-0.4857-0.7530 ( 26896 PWs)   bands (ev):

   -24.6800 -24.6800 -10.3684 -10.3684  -9.9486  -9.9486  -9.9338  -9.9338
    -5.8124  -5.8124  -5.1160  -5.1160  -2.1361  -2.1361  -1.3069  -1.3069
    -0.6178  -0.6178  -0.5206  -0.5206  -0.4669  -0.4669  -0.2157  -0.2157

          k = 0.2407 0.0000 0.0000 ( 26869 PWs)   bands (ev):

   -24.6961 -24.6924 -10.1558 -10.1269  -9.9809  -9.9588  -9.8532  -9.8215
    -6.4186  -5.8047  -5.2660  -5.2512  -2.1118  -1.3561  -1.2312  -1.0845
    -0.7480  -0.7293  -0.7047  -0.5370  -0.3510  -0.3154  -0.1497  -0.0754

          k = 0.2407 0.0000 0.3765 ( 26868 PWs)   bands (ev):

   -24.6885 -24.6859 -10.1436 -10.1262 -10.0707 -10.0362  -9.9483  -9.9246
    -5.9613  -5.4721  -5.4417  -5.4111  -1.8560  -1.6952  -1.6667  -1.0216
    -0.9229  -0.8247  -0.6700  -0.4462  -0.3473  -0.2109  -0.1699  -0.1466

          k = 0.2407 0.0000-0.7530 ( 26854 PWs)   bands (ev):

   -24.6800 -24.6800 -10.3628 -10.3628  -9.9542  -9.9542  -9.9385  -9.9385
    -5.6696  -5.6696  -5.2632  -5.2631  -2.1468  -2.1468  -1.3793  -1.3792
    -0.6042  -0.6041  -0.5609  -0.5609  -0.3573  -0.3572  -0.2076  -0.2075

          k = 0.2407 0.2428 0.0000 ( 26866 PWs)   bands (ev):

   -24.6956 -24.6930 -10.1764 -10.1058 -10.0118  -9.9322  -9.8485  -9.8261
    -6.3233  -5.8554  -5.3637  -5.2377  -1.9482  -1.5255  -1.2635  -0.8713
    -0.8063  -0.7459  -0.5754  -0.4867  -0.4760  -0.3351  -0.2434  -0.0650

          k = 0.2407 0.2428 0.3765 ( 26872 PWs)   bands (ev):

   -24.6881 -24.6862 -10.1422 -10.1230 -10.0895 -10.0227  -9.9542  -9.9199
    -5.8933  -5.5471  -5.4542  -5.4075  -1.8402  -1.7420  -1.6026  -1.1080
    -0.8495  -0.7674  -0.6327  -0.4123  -0.3911  -0.2567  -0.1845  -0.1302

          k = 0.2407 0.2428-0.7530 ( 26862 PWs)   bands (ev):

   -24.6800 -24.6800 -10.3673 -10.3553  -9.9572  -9.9526  -9.9460  -9.9331
    -5.7732  -5.6192  -5.3129  -5.1510  -2.2067  -2.0292  -1.5764  -1.3390
    -0.6643  -0.5879  -0.4602  -0.4343  -0.3759  -0.3408  -0.2775  -0.1642

          k = 0.2407-0.4857 0.0000 ( 26830 PWs)   bands (ev):

   -24.6943 -24.6943 -10.1553 -10.1553  -9.9598  -9.9598  -9.8372  -9.8372
    -6.0811  -6.0811  -5.3277  -5.3277  -1.7069  -1.7069  -1.0501  -1.0501
    -0.8102  -0.8102  -0.5047  -0.5047  -0.3706  -0.3706  -0.2037  -0.2037

          k = 0.2407-0.4857 0.3765 ( 26838 PWs)   bands (ev):

   -24.6871 -24.6871 -10.1372 -10.1372 -10.0577 -10.0577  -9.9319  -9.9319
    -5.7256  -5.7256  -5.4333  -5.4333  -1.8130  -1.8130  -1.3648  -1.3648
    -0.7590  -0.7590  -0.5034  -0.5034  -0.2740  -0.2740  -0.2140  -0.2140

          k = 0.2407-0.4857-0.7530 ( 26928 PWs)   bands (ev):

   -24.6800 -24.6800 -10.3601 -10.3601  -9.9511  -9.9511  -9.9449  -9.9449
    -5.7427  -5.7427  -5.1806  -5.1806  -2.1175  -2.1175  -1.5063  -1.5063
    -0.5911  -0.5911  -0.4425  -0.4425  -0.3367  -0.3367  -0.2064  -0.2064

          k =-0.4813 0.0000 0.0000 ( 26836 PWs)   bands (ev):

   -24.6943 -24.6943 -10.1056 -10.1056 -10.0132 -10.0132  -9.8373  -9.8373
    -6.0837  -6.0837  -5.3092  -5.3092  -1.7285  -1.7285  -0.8776  -0.8776
    -0.7077  -0.7077  -0.6787  -0.6787  -0.4855  -0.4855  -0.2502  -0.2502

          k =-0.4813 0.0000 0.3765 ( 26872 PWs)   bands (ev):

   -24.6872 -24.6872 -10.1471 -10.1471 -10.0300 -10.0300  -9.9501  -9.9501
    -5.7186  -5.7186  -5.4347  -5.4347  -1.8038  -1.8038  -1.3409  -1.3409
    -0.7164  -0.7164  -0.6145  -0.6145  -0.3129  -0.3129  -0.1887  -0.1887

          k =-0.4813 0.0000-0.7530 ( 26880 PWs)   bands (ev):

   -24.6800 -24.6800 -10.3709 -10.3709  -9.9531  -9.9531  -9.9296  -9.9296
    -5.7291  -5.7291  -5.1887  -5.1887  -2.2895  -2.2895  -1.1784  -1.1784
    -0.6409  -0.6409  -0.5619  -0.5619  -0.3182  -0.3182  -0.2412  -0.2412

          k =-0.4813 0.2428 0.0000 ( 26856 PWs)   bands (ev):

   -24.6943 -24.6943 -10.1540 -10.1540  -9.9615  -9.9615  -9.8372  -9.8372
    -6.0974  -6.0974  -5.3018  -5.3018  -1.6882  -1.6882  -1.0025  -1.0025
    -0.7863  -0.7863  -0.6185  -0.6185  -0.3989  -0.3989  -0.1962  -0.1962

          k =-0.4813 0.2428 0.3765 ( 26848 PWs)   bands (ev):

   -24.6871 -24.6871 -10.1368 -10.1368 -10.0601 -10.0601  -9.9308  -9.9308
    -5.7039  -5.7039  -5.4499  -5.4499  -1.8099  -1.8099  -1.3878  -1.3878
    -0.7120  -0.7120  -0.5592  -0.5592  -0.2713  -0.2713  -0.2013  -0.2013

          k =-0.4813 0.2428-0.7530 ( 26904 PWs)   bands (ev):

   -24.6800 -24.6800 -10.3614 -10.3614  -9.9552  -9.9552  -9.9409  -9.9409
    -5.6932  -5.6932  -5.2248  -5.2248  -2.2158  -2.2158  -1.4139  -1.4139
    -0.5836  -0.5836  -0.5104  -0.5104  -0.3015  -0.3015  -0.1570  -0.1570

          k =-0.4813-0.4857 0.0000 ( 26836 PWs)   bands (ev):

   -24.6943 -24.6943 -10.1842 -10.1842  -9.9280  -9.9280  -9.8371  -9.8371
    -6.1110  -6.1110  -5.2946  -5.2946  -1.6345  -1.6345  -1.1342  -1.1342
    -0.8392  -0.8392  -0.5219  -0.5219  -0.3378  -0.3378  -0.1865  -0.1865

          k =-0.4813-0.4857 0.3765 ( 26868 PWs)   bands (ev):

   -24.6871 -24.6871 -10.1144 -10.1144 -10.0963 -10.0963  -9.9174  -9.9174
    -5.6874  -5.6874  -5.4669  -5.4669  -1.8127  -1.8127  -1.4369  -1.4369
    -0.7185  -0.7185  -0.4326  -0.4326  -0.3393  -0.3393  -0.1653  -0.1653

          k =-0.4813-0.4857-0.7530 ( 26840 PWs)   bands (ev):

   -24.6800 -24.6800 -10.3514 -10.3514  -9.9593  -9.9593  -9.9507  -9.9507
    -5.6509  -5.6509  -5.2672  -5.2672  -2.0891  -2.0891  -1.6687  -1.6687
    -0.5647  -0.5647  -0.3841  -0.3841  -0.3087  -0.3087  -0.1207  -0.1207

     highest occupied level (ev):     0.0049

!    total energy              =    -156.46892060 Ry
     estimated scf accuracy    <          2.0E-13 Ry

     The total energy is the sum of the following terms:
     one-electron contribution =     -35.92930450 Ry
     hartree contribution      =      30.98953270 Ry
     xc contribution           =     -49.06135202 Ry
     ewald contribution        =    -102.46779678 Ry

     convergence has been achieved in  13 iterations

     Forces acting on atoms (cartesian axes, Ry/au):

     atom    1 type  2   force =     0.00000000    0.00000000    0.00000297
     atom    2 type  2   force =     0.00000000    0.00000000   -0.00000297
     atom    3 type  1   force =    -0.00000098    0.00000671   -0.00000453
     atom    4 type  1   force =     0.00000098   -0.00000671   -0.00000453
     atom    5 type  1   force =    -0.00000098   -0.00000671    0.00000453
     atom    6 type  1   force =     0.00000098    0.00000671    0.00000453
     atom    7 type  3   force =     0.00000274   -0.00000278    0.00000533
     atom    8 type  3   force =    -0.00000274    0.00000278    0.00000533
     atom    9 type  3   force =     0.00000274    0.00000278   -0.00000533
     atom   10 type  3   force =    -0.00000274   -0.00000278   -0.00000533
     atom   11 type  3   force =    -0.00000105   -0.00000185   -0.00000055
     atom   12 type  3   force =     0.00000105    0.00000185   -0.00000055
     atom   13 type  3   force =    -0.00000105    0.00000185    0.00000055
     atom   14 type  3   force =     0.00000105   -0.00000185    0.00000055
     atom   15 type  3   force =     0.00000173   -0.00000178   -0.00000380
     atom   16 type  3   force =    -0.00000173    0.00000178   -0.00000380
     atom   17 type  3   force =     0.00000173    0.00000178    0.00000380
     atom   18 type  3   force =    -0.00000173   -0.00000178    0.00000380
     atom   19 type  3   force =     0.00000556   -0.00000237   -0.00000181
     atom   20 type  3   force =    -0.00000556    0.00000237   -0.00000181
     atom   21 type  3   force =     0.00000556    0.00000237    0.00000181
     atom   22 type  3   force =    -0.00000556   -0.00000237    0.00000181

     Total force =     0.000027     Total SCF correction =     0.000000


     Computing stress (Cartesian axis) and pressure

          total   stress  (Ry/bohr**3)                   (kbar)     P=       -6.42
  -0.00004358   0.00000000   0.00000000           -6.41        0.00        0.00
   0.00000000  -0.00004362   0.00000000            0.00       -6.42        0.00
   0.00000000   0.00000000  -0.00004368            0.00        0.00       -6.43


     Writing all to output data dir ./pwscf.save/ :
     XML data file, charge density, pseudopotentials, collected wavefunctions

     init_run     :     21.48s CPU     23.43s WALL (       2 calls)
     electrons    :   9994.01s CPU  10069.59s WALL (      64 calls)
     update_pot   :     16.34s CPU     17.84s WALL (      62 calls)
     forces       :    235.51s CPU    237.45s WALL (      64 calls)
     stress       :   1907.62s CPU   1912.41s WALL (      64 calls)

     Called by init_run:
     wfcinit      :     16.89s CPU     16.98s WALL (       2 calls)
     potinit      :      0.78s CPU      1.26s WALL (       2 calls)
     hinit0       :      1.85s CPU      3.17s WALL (       2 calls)

     Called by electrons:
     c_bands      :   8783.78s CPU   8839.57s WALL (     500 calls)
     sum_band     :   1036.03s CPU   1047.03s WALL (     500 calls)
     v_of_rho     :     75.16s CPU     78.49s WALL (     532 calls)
     newd         :    101.56s CPU    103.42s WALL (     532 calls)
     mix_rho      :      8.23s CPU      9.06s WALL (     500 calls)

     Called by c_bands:
     init_us_2    :    197.32s CPU    199.67s WALL (   30510 calls)
     cegterg      :   7847.10s CPU   7899.63s WALL (   13500 calls)

     Called by *egterg:
     cdiaghg      :    105.86s CPU    106.64s WALL (   59281 calls)
     h_psi        :   5419.12s CPU   5460.55s WALL (   61873 calls)
     s_psi        :   1065.57s CPU   1070.10s WALL (   61873 calls)
     g_psi        :     20.71s CPU     20.80s WALL (   48319 calls)

     Called by h_psi:
     h_psi:calbec :    979.60s CPU    984.37s WALL (   61873 calls)
     vloc_psi     :   3350.31s CPU   3382.78s WALL (   61873 calls)
     add_vuspsi   :   1072.06s CPU   1076.52s WALL (   61873 calls)

     General routines
     calbec       :   1707.88s CPU   1715.01s WALL (   84013 calls)
     fft          :     53.72s CPU     60.57s WALL (    8482 calls)
     ffts         :      3.14s CPU      3.79s WALL (    1032 calls)
     fftw         :   3419.16s CPU   3451.79s WALL ( 2441956 calls)
     interpolate  :      5.86s CPU      6.91s WALL (     532 calls)

     Parallel routines

     PWSCF        :      3h23m CPU      3h24m WALL


   This run was terminated on:  18: 7:10   6Aug2024            

=------------------------------------------------------------------------------=
   JOB DONE.
=------------------------------------------------------------------------------=
