
     Program PWSCF v.7.3.1 starts on 12Jul2024 at 14:14: 7 

     This program is part of the open-source Quantum ESPRESSO suite
     for quantum simulation of materials; please cite
         "P. Giannozzi et al., J. Phys.:Condens. Matter 21 395502 (2009);
         "P. Giannozzi et al., J. Phys.:Condens. Matter 29 465901 (2017);
         "P. Giannozzi et al., J. Chem. Phys. 152 154105 (2020);
          URL http://www.quantum-espresso.org", 
     in publications or presentations arising from this work. More details at
     http://www.quantum-espresso.org/quote

     Parallel version (MPI), running on    24 processors

     MPI processes distributed on     1 nodes
     126881 MiB available memory on the printing compute node when the environment starts

     Waiting for input...
     Reading input from standard input

     Current dimensions of program PWSCF are:
     Max number of different atomic species (ntypx) = 10
     Max number of k-points (npk) =  40000
     Max angular momentum in pseudopotentials (lmaxx) =  4

     R & G space division:  proc/nbgrp/npool/nimage =      24
     Subspace diagonalization in iterative solution of the eigenvalue problem:
     a serial algorithm will be used


     Parallelization info
     --------------------
     sticks:   dense  smooth     PW     G-vecs:    dense   smooth      PW
     Min         418     209     57                21578     7633    1107
     Max         419     210     58                21580     7636    1110
     Sum       10033    5035   1391               517905   183229   26595

     Using Slab Decomposition


     Title: 
     volume variation                                                           


     bravais-lattice index     =            8
     lattice parameter (alat)  =      12.4053  a.u.
     unit-cell volume          =    1355.6218 (a.u.)^3
     number of atoms/cell      =           22
     number of atomic types    =            3
     number of electrons       =        48.00
     number of Kohn-Sham states=           24
     kinetic-energy cutoff     =     100.0000  Ry
     charge density cutoff     =     800.0000  Ry
     scf convergence threshold =      1.0E-10
     mixing beta               =       0.7000
     number of iterations used =            8  plain     mixing
     energy convergence thresh.=      1.0E-05
     force convergence thresh. =      1.0E-05
     press convergence thresh. =      5.0E-01
     Exchange-correlation= PBESOL
                           (   1   4  10   8   0   0   0)
     nstep                     =          300


     celldm(1)=  12.405277  celldm(2)=   1.025571  celldm(3)=   0.692394
     celldm(4)=   0.000000  celldm(5)=   0.000000  celldm(6)=   0.000000

     crystal axes: (cart. coord. in units of alat)
               a(1) = (   1.000000   0.000000   0.000000 )  
               a(2) = (   0.000000   1.025571   0.000000 )  
               a(3) = (   0.000000   0.000000   0.692394 )  

     reciprocal axes: (cart. coord. in units 2 pi/alat)
               b(1) = (  1.000000  0.000000  0.000000 )  
               b(2) = (  0.000000  0.975067  0.000000 )  
               b(3) = (  0.000000  0.000000  1.444264 )  


     PseudoPot. # 1 for B  read from file:
     /home/mehlhorn/pseudos/b_pbesol_v1.4.uspp.F.UPF
     MD5 check sum: 369b69bef2c3aeed4453bd8b804fd6a8
     Pseudo is Ultrasoft + core correction, Zval =  3.0
     Generated by new atomic code, or converted to UPF format
     Using radial grid of  781 points,  4 beta functions with: 
                l(1) =   0
                l(2) =   0
                l(3) =   1
                l(4) =   1
     Q(r) pseudized with  8 coefficients,  rinner =    1.100   1.100   1.100


     PseudoPot. # 2 for Ba read from file:
     /home/mehlhorn/pseudos/Ba.nc.z_10.oncvpsp4.dojo.v4-sp.upf
     MD5 check sum: c10ed334bb677c0554edec7181ce9143
     Pseudo is Norm-conserving + core correction, Zval = 10.0
     Generated using ONCVPSP code by D. R. Hamann
     Using radial grid of 1938 points,  8 beta functions with: 
                l(1) =   0
                l(2) =   0
                l(3) =   1
                l(4) =   1
                l(5) =   2
                l(6) =   2
                l(7) =   3
                l(8) =   3

     PseudoPot. # 3 for H  read from file:
     /home/mehlhorn/pseudos/H_ONCV_PBEsol-1.0.upf
     MD5 check sum: 398ef8f67c0a7342c05c87c5e19ea467
     Pseudo is Norm-conserving, Zval =  1.0
     Generated using ONCVPSP code by D. R. Hamann
     Using radial grid of 1180 points,  2 beta functions with: 
                l(1) =   0
                l(2) =   0

     atomic species   valence    mass     pseudopotential
     B                 3.00    10.81100     B ( 1.00)
     Ba               10.00   137.32700     Ba( 1.00)
     H                 1.00     1.00794     H ( 1.00)

      4 Sym. Ops. (no inversion) found ( 2 have fractional translation)



   Cartesian axes

     site n.     atom                  positions (alat units)
         1        Ba     tau(   1) = (   0.5000000   0.5127855   0.3462657  )
         2        Ba     tau(   2) = (   0.0000000   0.0000000   0.6923255  )
         3        B      tau(   3) = (   0.6102570   0.2453190   0.0000455  )
         4        B      tau(   4) = (   0.3897430   0.7802519   0.0000455  )
         5        B      tau(   5) = (   0.1102570   0.2674665   0.3461516  )
         6        B      tau(   6) = (   0.8897430   0.7581045   0.3461516  )
         7        H      tau(   7) = (   0.4340973   0.2996264   0.0001599  )
         8        H      tau(   8) = (   0.5659027   0.7259445   0.0001599  )
         9        H      tau(   9) = (   0.9340973   0.2131590   0.3460372  )
        10        H      tau(  10) = (   0.0659027   0.8124119   0.3460372  )
        11        H      tau(  11) = (   0.7220603   0.3933629  -0.0000058  )
        12        H      tau(  12) = (   0.2779397   0.6322081  -0.0000058  )
        13        H      tau(  13) = (   0.2220603   0.1194226   0.3462029  )
        14        H      tau(  14) = (   0.7779397   0.9061483   0.3462029  )
        15        H      tau(  15) = (   0.6392499   0.1457279   0.5404125  )
        16        H      tau(  16) = (   0.3607501   0.8798430   0.5404125  )
        17        H      tau(  17) = (   0.1392499   0.3670576   0.4981787  )
        18        H      tau(  18) = (   0.8607501   0.6585133   0.4981787  )
        19        H      tau(  19) = (   0.3605328   0.8798946   0.1519977  )
        20        H      tau(  20) = (   0.6394672   0.1456763   0.1519977  )
        21        H      tau(  21) = (   0.8605328   0.6584617   0.1941994  )
        22        H      tau(  22) = (   0.1394672   0.3671092   0.1941994  )

     number of k points=    27
                       cart. coord. in units 2pi/alat
        k(    1) = (   0.0000000   0.0000000   0.0000000), wk =   0.0312500
        k(    2) = (   0.0000000   0.0000000   0.3610660), wk =   0.0625000
        k(    3) = (   0.0000000   0.0000000  -0.7221320), wk =   0.0312500
        k(    4) = (   0.0000000   0.2437667   0.0000000), wk =   0.0625000
        k(    5) = (   0.0000000   0.2437667   0.3610660), wk =   0.1250000
        k(    6) = (   0.0000000   0.2437667  -0.7221320), wk =   0.0625000
        k(    7) = (   0.0000000  -0.4875333   0.0000000), wk =   0.0312500
        k(    8) = (   0.0000000  -0.4875333   0.3610660), wk =   0.0625000
        k(    9) = (   0.0000000  -0.4875333  -0.7221320), wk =   0.0312500
        k(   10) = (   0.2500000   0.0000000   0.0000000), wk =   0.0625000
        k(   11) = (   0.2500000   0.0000000   0.3610660), wk =   0.1250000
        k(   12) = (   0.2500000   0.0000000  -0.7221320), wk =   0.0625000
        k(   13) = (   0.2500000   0.2437667   0.0000000), wk =   0.1250000
        k(   14) = (   0.2500000   0.2437667   0.3610660), wk =   0.2500000
        k(   15) = (   0.2500000   0.2437667  -0.7221320), wk =   0.1250000
        k(   16) = (   0.2500000  -0.4875333   0.0000000), wk =   0.0625000
        k(   17) = (   0.2500000  -0.4875333   0.3610660), wk =   0.1250000
        k(   18) = (   0.2500000  -0.4875333  -0.7221320), wk =   0.0625000
        k(   19) = (  -0.5000000   0.0000000   0.0000000), wk =   0.0312500
        k(   20) = (  -0.5000000   0.0000000   0.3610660), wk =   0.0625000
        k(   21) = (  -0.5000000   0.0000000  -0.7221320), wk =   0.0312500
        k(   22) = (  -0.5000000   0.2437667   0.0000000), wk =   0.0625000
        k(   23) = (  -0.5000000   0.2437667   0.3610660), wk =   0.1250000
        k(   24) = (  -0.5000000   0.2437667  -0.7221320), wk =   0.0625000
        k(   25) = (  -0.5000000  -0.4875333   0.0000000), wk =   0.0312500
        k(   26) = (  -0.5000000  -0.4875333   0.3610660), wk =   0.0625000
        k(   27) = (  -0.5000000  -0.4875333  -0.7221320), wk =   0.0312500

     Dense  grid:   517905 G-vectors     FFT dimensions: ( 120, 120,  80)

     Smooth grid:   183229 G-vectors     FFT dimensions: (  80,  90,  60)

     Estimated max dynamical RAM per process >      88.08 MB

     Estimated total dynamical RAM >       2.06 GB

     Initial potential from superposition of free atoms

     starting charge      47.9682, renormalised to      48.0000
     Starting wfcs are   42 randomized atomic wfcs

     total cpu time spent up to now is       11.5 secs

     Self-consistent Calculation

     iteration #  1     ecut=   100.00 Ry     beta= 0.70
     Davidson diagonalization with overlap
     ethr =  1.00E-02,  avg # of iterations =  2.0

     total cpu time spent up to now is       23.8 secs

     total energy              =    -155.88739156 Ry
     estimated scf accuracy    <       2.20806907 Ry

     iteration #  2     ecut=   100.00 Ry     beta= 0.70
     Davidson diagonalization with overlap
     ethr =  4.60E-03,  avg # of iterations =  2.0

     total cpu time spent up to now is       35.5 secs

     total energy              =    -156.40032906 Ry
     estimated scf accuracy    <       0.37664413 Ry

     iteration #  3     ecut=   100.00 Ry     beta= 0.70
     Davidson diagonalization with overlap
     ethr =  7.85E-04,  avg # of iterations =  2.0

     total cpu time spent up to now is       47.2 secs

     total energy              =    -156.46287904 Ry
     estimated scf accuracy    <       0.00506578 Ry

     iteration #  4     ecut=   100.00 Ry     beta= 0.70
     Davidson diagonalization with overlap
     ethr =  1.06E-05,  avg # of iterations =  5.1

     total cpu time spent up to now is       64.5 secs

     total energy              =    -156.46621270 Ry
     estimated scf accuracy    <       0.00161955 Ry

     iteration #  5     ecut=   100.00 Ry     beta= 0.70
     Davidson diagonalization with overlap
     ethr =  3.37E-06,  avg # of iterations =  3.1

     total cpu time spent up to now is       76.7 secs

     total energy              =    -156.46677830 Ry
     estimated scf accuracy    <       0.00015755 Ry

     iteration #  6     ecut=   100.00 Ry     beta= 0.70
     Davidson diagonalization with overlap
     ethr =  3.28E-07,  avg # of iterations =  4.0

     total cpu time spent up to now is       90.2 secs

     total energy              =    -156.46683896 Ry
     estimated scf accuracy    <       0.00000106 Ry

     iteration #  7     ecut=   100.00 Ry     beta= 0.70
     Davidson diagonalization with overlap
     ethr =  2.20E-09,  avg # of iterations =  8.7

     total cpu time spent up to now is      117.9 secs

     total energy              =    -156.46684674 Ry
     estimated scf accuracy    <       0.00000100 Ry

     iteration #  8     ecut=   100.00 Ry     beta= 0.70
     Davidson diagonalization with overlap
     ethr =  2.07E-09,  avg # of iterations =  2.0

     total cpu time spent up to now is      129.6 secs

     total energy              =    -156.46684702 Ry
     estimated scf accuracy    <       0.00000007 Ry

     iteration #  9     ecut=   100.00 Ry     beta= 0.70
     Davidson diagonalization with overlap
     ethr =  1.42E-10,  avg # of iterations =  4.4

     total cpu time spent up to now is      143.5 secs

     total energy              =    -156.46684704 Ry
     estimated scf accuracy    <          3.4E-09 Ry

     iteration # 10     ecut=   100.00 Ry     beta= 0.70
     Davidson diagonalization with overlap
     ethr =  7.06E-12,  avg # of iterations =  4.9

     total cpu time spent up to now is      159.2 secs

     total energy              =    -156.46684704 Ry
     estimated scf accuracy    <          1.6E-09 Ry

     iteration # 11     ecut=   100.00 Ry     beta= 0.70
     Davidson diagonalization with overlap
     ethr =  3.30E-12,  avg # of iterations =  2.1

     total cpu time spent up to now is      170.9 secs

     End of self-consistent calculation

          k = 0.0000 0.0000 0.0000 ( 22893 PWs)   bands (ev):

   -23.2559 -23.2429  -8.9552  -8.8363  -8.5733  -8.5199  -8.4954  -8.4099
    -5.8287  -4.8146  -3.9387  -3.8157  -1.4964  -0.5542  -0.3876  -0.1033
     0.3139   0.3605   0.4394   0.5182   0.7065   1.1535   1.1554   1.2006

          k = 0.0000 0.0000 0.3611 ( 22897 PWs)   bands (ev):

   -23.2450 -23.2357  -8.8331  -8.8298  -8.8067  -8.7478  -8.5480  -8.5186
    -5.2207  -4.4767  -4.1736  -4.1053  -1.0518  -0.7839  -0.3349  -0.2932
    -0.1157   0.0265   0.4226   0.7351   0.9118   0.9806   1.0777   1.2240

          k = 0.0000 0.0000-0.7221 ( 22892 PWs)   bands (ev):

   -23.2313 -23.2313  -9.1145  -9.1143  -8.6372  -8.6371  -8.5571  -8.5570
    -4.4210  -4.4206  -4.4049  -4.4043  -0.8225  -0.8220  -0.8152  -0.8135
     0.2884   0.2894   0.4509   0.4526   1.0387   1.0392   1.0627   1.0628

          k = 0.0000 0.2438 0.0000 ( 22902 PWs)   bands (ev):

   -23.2540 -23.2448  -8.9184  -8.7952  -8.6523  -8.5696  -8.4826  -8.4222
    -5.5890  -4.7016  -4.2783  -3.9757  -1.0841  -0.6203  -0.5979   0.2124
     0.2510   0.2521   0.5774   0.7223   0.7888   0.8095   1.0545   1.1255

          k = 0.0000 0.2438 0.3611 ( 22894 PWs)   bands (ev):

   -23.2436 -23.2371  -8.8943  -8.8471  -8.7309  -8.7090  -8.5628  -8.5495
    -5.1097  -4.5660  -4.2105  -4.1421  -0.8544  -0.8104  -0.6391  -0.0065
     0.0353   0.2311   0.2564   0.7946   0.8520   0.9245   1.0277   1.0871

          k = 0.0000 0.2438-0.7221 ( 22910 PWs)   bands (ev):

   -23.2313 -23.2313  -9.1318  -9.1316  -8.6105  -8.6105  -8.5559  -8.5559
    -4.8152  -4.8151  -3.9924  -3.9924  -0.9749  -0.9742  -0.6004  -0.5995
     0.3893   0.3895   0.4741   0.4757   0.8447   0.8449   1.0510   1.0513

          k = 0.0000-0.4875 0.0000 ( 22844 PWs)   bands (ev):

   -23.2493 -23.2493  -8.8101  -8.8101  -8.6818  -8.6818  -8.4521  -8.4521
    -5.0088  -5.0088  -4.3225  -4.3225  -0.7348  -0.7348  -0.1101  -0.1101
     0.1504   0.1504   0.6980   0.6980   0.8558   0.8558   0.9686   0.9686

          k = 0.0000-0.4875 0.3611 ( 22876 PWs)   bands (ev):

   -23.2403 -23.2403  -8.8960  -8.8960  -8.6487  -8.6487  -8.6068  -8.6068
    -4.8363  -4.8363  -4.2025  -4.2025  -0.8004  -0.8004  -0.3797  -0.3797
     0.3102   0.3102   0.6111   0.6111   0.7604   0.7604   0.9963   0.9963

          k = 0.0000-0.4875-0.7221 ( 22924 PWs)   bands (ev):

   -23.2313 -23.2313  -9.1475  -9.1475  -8.5873  -8.5873  -8.5526  -8.5526
    -4.9791  -4.9791  -3.8100  -3.8100  -1.0787  -1.0787  -0.3044  -0.3044
     0.2906   0.2906   0.5442   0.5442   0.6290   0.6290   1.0901   1.0901

          k = 0.2500 0.0000 0.0000 ( 22899 PWs)   bands (ev):

   -23.2540 -23.2447  -8.9037  -8.8140  -8.6344  -8.5973  -8.4826  -8.4222
    -5.5989  -4.8177  -4.0041  -4.0007  -1.2862  -0.3696  -0.3131  -0.2300
     0.3699   0.4344   0.4812   0.5480   0.6560   0.6842   1.1077   1.1383

          k = 0.2500 0.0000 0.3611 ( 22880 PWs)   bands (ev):

   -23.2436 -23.2370  -8.8837  -8.8630  -8.7685  -8.6773  -8.5842  -8.5338
    -5.0508  -4.4398  -4.2527  -4.2198  -1.0257  -0.7777  -0.6342  -0.0671
    -0.0537   0.2626   0.4873   0.6307   0.7975   0.9234   1.1330   1.1722

          k = 0.2500 0.0000-0.7221 ( 22874 PWs)   bands (ev):

   -23.2313 -23.2312  -9.1388  -9.1386  -8.6169  -8.6169  -8.5529  -8.5528
    -4.5910  -4.5907  -4.1954  -4.1951  -1.3419  -1.3413  -0.3063  -0.3058
     0.2983   0.2988   0.6965   0.6976   0.8230   0.8231   1.0817   1.0821

          k = 0.2500 0.2438 0.0000 ( 22891 PWs)   bands (ev):

   -23.2526 -23.2461  -8.9427  -8.7834  -8.7087  -8.5291  -8.4733  -8.4306
    -5.4438  -4.7656  -4.3029  -4.0175  -0.9662  -0.5878  -0.3892   0.1072
     0.1736   0.2363   0.5630   0.7307   0.7325   0.8369   0.8883   1.0546

          k = 0.2500 0.2438 0.3611 ( 22877 PWs)   bands (ev):

   -23.2426 -23.2380  -8.8889  -8.8343  -8.8210  -8.6485  -8.6021  -8.5232
    -4.9583  -4.5025  -4.3107  -4.2225  -0.9933  -0.7519  -0.6307  -0.0388
     0.1142   0.3121   0.4152   0.6598   0.7630   0.8827   1.0516   1.1473

          k = 0.2500 0.2438-0.7221 ( 22890 PWs)   bands (ev):

   -23.2312 -23.2312  -9.1472  -9.1159  -8.6494  -8.5902  -8.5638  -8.5532
    -4.8397  -4.5986  -4.1752  -3.9256  -1.3178  -1.2157  -0.3970  -0.2400
     0.2381   0.2462   0.6607   0.7491   0.8125   0.8809   1.0292   1.0491

          k = 0.2500-0.4875 0.0000 ( 22910 PWs)   bands (ev):

   -23.2493 -23.2493  -8.9112  -8.9112  -8.5782  -8.5782  -8.4515  -8.4515
    -5.0437  -5.0437  -4.2693  -4.2693  -0.6461  -0.6461  -0.1188  -0.1188
     0.1029   0.1029   0.6206   0.6206   0.9028   0.9028   0.9040   0.9040

          k = 0.2500-0.4875 0.3611 ( 22874 PWs)   bands (ev):

   -23.2403 -23.2403  -8.8801  -8.8801  -8.7394  -8.7394  -8.5431  -8.5431
    -4.7318  -4.7318  -4.2799  -4.2799  -0.9040  -0.9040  -0.2733  -0.2733
     0.2629   0.2629   0.6174   0.6174   0.7818   0.7818   1.0213   1.0213

          k = 0.2500-0.4875-0.7221 ( 22896 PWs)   bands (ev):

   -23.2312 -23.2312  -9.1259  -9.1259  -8.6237  -8.6237  -8.5618  -8.5618
    -4.8397  -4.8397  -3.9128  -3.9128  -1.1878  -1.1878  -0.3791  -0.3791
     0.3705   0.3705   0.5107   0.5107   0.8907   0.8907   1.0361   1.0361

          k =-0.5000 0.0000 0.0000 ( 22984 PWs)   bands (ev):

   -23.2493 -23.2493  -8.7745  -8.7745  -8.7309  -8.7309  -8.4521  -8.4521
    -5.1051  -5.1051  -4.1126  -4.1126  -0.8239  -0.8239   0.0300   0.0300
     0.4301   0.4301   0.4309   0.4309   0.5217   0.5217   0.9753   0.9753

          k =-0.5000 0.0000 0.3611 ( 22918 PWs)   bands (ev):

   -23.2403 -23.2403  -8.9031  -8.9031  -8.6792  -8.6792  -8.5859  -8.5859
    -4.6569  -4.6569  -4.3190  -4.3190  -0.9587  -0.9587  -0.3466  -0.3466
     0.2703   0.2703   0.4787   0.4787   0.8864   0.8864   1.1221   1.1221

          k =-0.5000 0.0000-0.7221 ( 22844 PWs)   bands (ev):

   -23.2312 -23.2312  -9.1611  -9.1611  -8.5998  -8.5998  -8.5473  -8.5473
    -4.6603  -4.6603  -4.0821  -4.0821  -1.5744  -1.5744   0.0500   0.0500
     0.3049   0.3049   0.4709   0.4709   1.0195   1.0195   1.0363   1.0363

          k =-0.5000 0.2438 0.0000 ( 22878 PWs)   bands (ev):

   -23.2493 -23.2493  -8.9089  -8.9089  -8.5873  -8.5873  -8.4515  -8.4515
    -5.0917  -5.0917  -4.1644  -4.1644  -0.7093  -0.7093   0.0219   0.0219
     0.1761   0.1761   0.3850   0.3850   0.8036   0.8036   0.9580   0.9580

          k =-0.5000 0.2438 0.3611 ( 22878 PWs)   bands (ev):

   -23.2402 -23.2402  -8.8848  -8.8848  -8.7443  -8.7443  -8.5418  -8.5418
    -4.6163  -4.6163  -4.3633  -4.3633  -0.9668  -0.9668  -0.3079  -0.3079
     0.3044   0.3044   0.5244   0.5244   0.8781   0.8781   1.0483   1.0483

          k =-0.5000 0.2438-0.7221 ( 22888 PWs)   bands (ev):

   -23.2312 -23.2312  -9.1334  -9.1334  -8.6271  -8.6271  -8.5611  -8.5611
    -4.6580  -4.6580  -4.0712  -4.0712  -1.4525  -1.4525  -0.1927  -0.1927
     0.3497   0.3497   0.5621   0.5621   0.9439   0.9439   1.1019   1.1019

          k =-0.5000-0.4875 0.0000 ( 22904 PWs)   bands (ev):

   -23.2492 -23.2492  -8.9702  -8.9702  -8.5167  -8.5167  -8.4509  -8.4509
    -5.0773  -5.0773  -4.2157  -4.2157  -0.5503  -0.5503  -0.1334  -0.1334
     0.0605   0.0605   0.5738   0.5738   0.8029   0.8029   0.9467   0.9467

          k =-0.5000-0.4875 0.3611 ( 22896 PWs)   bands (ev):

   -23.2402 -23.2402  -8.8476  -8.8476  -8.8095  -8.8095  -8.5166  -8.5166
    -4.5551  -4.5551  -4.4280  -4.4280  -0.9587  -0.9587  -0.3402  -0.3402
     0.4694   0.4694   0.6082   0.6082   0.7639   0.7639   0.9646   0.9646

          k =-0.5000-0.4875-0.7221 ( 22944 PWs)   bands (ev):

   -23.2312 -23.2312  -9.1014  -9.1014  -8.6626  -8.6626  -8.5708  -8.5708
    -4.6569  -4.6569  -4.0584  -4.0584  -1.2696  -1.2696  -0.5230  -0.5230
     0.6006   0.6006   0.6456   0.6456   0.7948   0.7948   1.0620   1.0620

     highest occupied level (ev):     1.2240

!    total energy              =    -156.46684704 Ry
     estimated scf accuracy    <          6.2E-11 Ry

     The total energy is the sum of the following terms:
     one-electron contribution =     -18.63324968 Ry
     hartree contribution      =      24.63081087 Ry
     xc contribution           =     -49.41237201 Ry
     ewald contribution        =    -113.05203622 Ry

     convergence has been achieved in  11 iterations

     Forces acting on atoms (cartesian axes, Ry/au):

     atom    1 type  2   force =     0.00000000    0.00000000    0.00001636
     atom    2 type  2   force =     0.00000000    0.00000000   -0.00001636
     atom    3 type  1   force =    -0.00037258   -0.00177382   -0.00001040
     atom    4 type  1   force =     0.00037258    0.00177382   -0.00001040
     atom    5 type  1   force =    -0.00037258    0.00177382    0.00001040
     atom    6 type  1   force =     0.00037258   -0.00177382    0.00001040
     atom    7 type  3   force =    -0.01441025    0.00361519   -0.00001231
     atom    8 type  3   force =     0.01441025   -0.00361519   -0.00001231
     atom    9 type  3   force =    -0.01441025   -0.00361519    0.00001231
     atom   10 type  3   force =     0.01441025    0.00361519    0.00001231
     atom   11 type  3   force =     0.00952317    0.01147825    0.00000329
     atom   12 type  3   force =    -0.00952317   -0.01147825    0.00000329
     atom   13 type  3   force =     0.00952317   -0.01147825   -0.00000329
     atom   14 type  3   force =    -0.00952317    0.01147825   -0.00000329
     atom   15 type  3   force =     0.00178172   -0.00847157   -0.01284928
     atom   16 type  3   force =    -0.00178172    0.00847157   -0.01284928
     atom   17 type  3   force =     0.00178172    0.00847157    0.01284928
     atom   18 type  3   force =    -0.00178172   -0.00847157    0.01284928
     atom   19 type  3   force =    -0.00174621    0.00845241    0.01283550
     atom   20 type  3   force =     0.00174621   -0.00845241    0.01283550
     atom   21 type  3   force =    -0.00174621   -0.00845241   -0.01283550
     atom   22 type  3   force =     0.00174621    0.00845241   -0.01283550

     Total force =     0.060852     Total SCF correction =     0.000005


     Computing stress (Cartesian axis) and pressure

          total   stress  (Ry/bohr**3)                   (kbar)     P=       34.22
   0.00021581   0.00000000   0.00000000           31.75        0.00        0.00
   0.00000000   0.00022045   0.00000000            0.00       32.43        0.00
   0.00000000   0.00000000   0.00026154            0.00        0.00       38.47

     Volume is kept fixed: isostatic pressure set to zero

     BFGS Geometry Optimization
     Energy error            =      0.0E+00 Ry
     Gradient error          =      1.4E-02 Ry/Bohr
     Cell gradient error     =      4.3E+00 kbar

     number of scf cycles    =   1
     number of bfgs steps    =   0

     enthalpy           new  =    -156.4668470381 Ry

     new trust radius        =       0.0154934229 bohr
ibrav =      8
 celldm(1) =     12.40007168
 celldm(2) =      1.02569001
 celldm(3) =      0.69318607
Input lattice vectors:
     0.99958036     0.00000000     0.00000000
     0.00000000     1.02525959     0.00000000
     0.00000000     0.00000000     0.69289518
New lattice vectors in INITIAL alat:
     0.99958036     0.00000000     0.00000000
     0.00000000     1.02525959     0.00000000
     0.00000000     0.00000000     0.69289518
New lattice vectors in NEW alat (for information only):
     1.00000000     0.00000000     0.00000000
     0.00000000     1.02569001     0.00000000
     0.00000000     0.00000000     0.69318607
Discrepancy in bohr =     0.000000    0.000000    0.000000
     new conv_thr            =            1.0E-10 Ry

     new unit-cell volume =   1355.62177 a.u.^3 (   200.88242 Ang^3 )
     density =      2.76113 g/cm^3

CELL_PARAMETERS (alat= 12.40527740)
   0.999580362   0.000000000   0.000000000
   0.000000000   1.025259588   0.000000000
   0.000000000   0.000000000   0.692895180

ATOMIC_POSITIONS (crystal)
Ba               0.5000000000        0.5000000000        0.5001010697
Ba               0.0000000000        0.0000000000        0.9998989303
B                0.6102269820        0.2390629565        0.0000644465
B                0.3897730180        0.7609370435        0.0000644465
B                0.1102269820        0.2609370435        0.4999355535
B                0.8897730180        0.7390629565        0.4999355535
H                0.4329356295        0.2924398861        0.0002295003
H                0.5670643705        0.7075601139        0.0002295003
H                0.9329356295        0.2075601139        0.4997704997
H                0.0670643705        0.7924398861        0.4997704997
H                0.7228279389        0.3844572108       -0.0000079885
H                0.2771720611        0.6155427892       -0.0000079885
H                0.2228279389        0.1155427892        0.5000079885
H                0.7771720611        0.8844572108        0.5000079885
H                0.6393935507        0.1414285212        0.7790024572
H                0.3606064493        0.8585714788        0.7790024572
H                0.1393935507        0.3585714788        0.7209975428
H                0.8606064493        0.6414285212        0.7209975428
H                0.3603920674        0.8586202826        0.2210192005
H                0.6396079326        0.1413797174        0.2210192005
H                0.8603920674        0.6413797174        0.2789807995
H                0.1396079326        0.3586202826        0.2789807995



     Writing config-only to output data dir ./pwscf.save/ :
     XML data file
     NEW-OLD atomic charge density approx. for the potential

     total cpu time spent up to now is      182.8 secs

     Self-consistent Calculation

     iteration #  1     ecut=   100.00 Ry     beta= 0.70
     Davidson diagonalization with overlap
     ethr =  1.00E-06,  avg # of iterations =  4.0

     total cpu time spent up to now is      200.2 secs

     total energy              =    -156.46947448 Ry
     estimated scf accuracy    <       0.00097407 Ry

     iteration #  2     ecut=   100.00 Ry     beta= 0.70
     Davidson diagonalization with overlap
     ethr =  2.03E-06,  avg # of iterations =  2.0

     total cpu time spent up to now is      211.9 secs

     total energy              =    -156.46976039 Ry
     estimated scf accuracy    <       0.00020538 Ry

     iteration #  3     ecut=   100.00 Ry     beta= 0.70
     Davidson diagonalization with overlap
     ethr =  4.28E-07,  avg # of iterations =  2.0

     total cpu time spent up to now is      223.6 secs

     total energy              =    -156.46978676 Ry
     estimated scf accuracy    <       0.00000324 Ry

     iteration #  4     ecut=   100.00 Ry     beta= 0.70
     Davidson diagonalization with overlap
     ethr =  6.76E-09,  avg # of iterations =  3.0

     total cpu time spent up to now is      238.2 secs

     total energy              =    -156.46978832 Ry
     estimated scf accuracy    <       0.00000219 Ry

     iteration #  5     ecut=   100.00 Ry     beta= 0.70
     Davidson diagonalization with overlap
     ethr =  4.55E-09,  avg # of iterations =  2.0

     total cpu time spent up to now is      249.9 secs

     total energy              =    -156.46978854 Ry
     estimated scf accuracy    <       0.00000009 Ry

     iteration #  6     ecut=   100.00 Ry     beta= 0.70
     Davidson diagonalization with overlap
     ethr =  1.96E-10,  avg # of iterations =  3.3

     total cpu time spent up to now is      263.1 secs

     total energy              =    -156.46978858 Ry
     estimated scf accuracy    <       0.00000002 Ry

     iteration #  7     ecut=   100.00 Ry     beta= 0.70
     Davidson diagonalization with overlap
     ethr =  4.56E-11,  avg # of iterations =  2.8

     total cpu time spent up to now is      275.2 secs

     total energy              =    -156.46978859 Ry
     estimated scf accuracy    <          7.1E-10 Ry

     iteration #  8     ecut=   100.00 Ry     beta= 0.70
     Davidson diagonalization with overlap
     ethr =  1.48E-12,  avg # of iterations =  6.1

     total cpu time spent up to now is      294.6 secs

     End of self-consistent calculation

          k = 0.0000 0.0000 0.0000 ( 22893 PWs)   bands (ev):

   -23.2414 -23.2283  -8.9393  -8.8221  -8.5591  -8.5065  -8.4826  -8.3967
    -5.8008  -4.7677  -3.8946  -3.7684  -1.4977  -0.5355  -0.3786  -0.0745
     0.3380   0.3707   0.4561   0.5416   0.7267   1.1876   1.1895   1.2371

          k = 0.0000 0.0000 0.3608 ( 22897 PWs)   bands (ev):

   -23.2305 -23.2212  -8.8178  -8.8150  -8.7911  -8.7341  -8.5341  -8.5053
    -5.1919  -4.4323  -4.1273  -4.0564  -1.0554  -0.7805  -0.3316  -0.2737
    -0.0984   0.0448   0.4468   0.7651   0.9429   1.0147   1.1061   1.2579

          k = 0.0000 0.0000-0.7216 ( 22892 PWs)   bands (ev):

   -23.2169 -23.2168  -9.0976  -9.0973  -8.6240  -8.6240  -8.5436  -8.5436
    -4.3839  -4.3835  -4.3556  -4.3550  -0.8224  -0.8219  -0.8157  -0.8140
     0.3138   0.3147   0.4753   0.4770   1.0734   1.0739   1.0933   1.0933

          k = 0.0000 0.2438 0.0000 ( 22902 PWs)   bands (ev):

   -23.2394 -23.2302  -8.9028  -8.7808  -8.6381  -8.5562  -8.4697  -8.4090
    -5.5600  -4.6545  -4.2404  -3.9287  -1.0787  -0.6061  -0.5890   0.2336
     0.2698   0.2820   0.5961   0.7445   0.8186   0.8321   1.0882   1.1590

          k = 0.0000 0.2438 0.3608 ( 22894 PWs)   bands (ev):

   -23.2291 -23.2225  -8.8793  -8.8318  -8.7158  -8.6952  -8.5488  -8.5363
    -5.0786  -4.5229  -4.1664  -4.0948  -0.8539  -0.8076  -0.6330   0.0085
     0.0541   0.2581   0.2768   0.8241   0.8819   0.9567   1.0579   1.1187

          k = 0.0000 0.2438-0.7216 ( 22910 PWs)   bands (ev):

   -23.2168 -23.2168  -9.1149  -9.1148  -8.5975  -8.5975  -8.5424  -8.5423
    -4.7718  -4.7718  -3.9495  -3.9495  -0.9749  -0.9742  -0.5991  -0.5982
     0.4152   0.4155   0.4998   0.5014   0.8741   0.8743   1.0840   1.0842

          k = 0.0000-0.4877 0.0000 ( 22844 PWs)   bands (ev):

   -23.2348 -23.2348  -8.7946  -8.7946  -8.6685  -8.6685  -8.4391  -8.4391
    -4.9757  -4.9757  -4.2768  -4.2768  -0.7272  -0.7272  -0.0909  -0.0909
     0.1695   0.1695   0.7309   0.7309   0.8791   0.8791   0.9975   0.9975

          k = 0.0000-0.4877 0.3608 ( 22876 PWs)   bands (ev):

   -23.2258 -23.2258  -8.8810  -8.8810  -8.6336  -8.6336  -8.5939  -8.5939
    -4.7993  -4.7993  -4.1580  -4.1580  -0.7980  -0.7980  -0.3687  -0.3687
     0.3340   0.3340   0.6349   0.6349   0.7925   0.7925   1.0271   1.0271

          k = 0.0000-0.4877-0.7216 ( 22924 PWs)   bands (ev):

   -23.2168 -23.2168  -9.1308  -9.1308  -8.5745  -8.5745  -8.5389  -8.5389
    -4.9356  -4.9356  -3.7675  -3.7675  -1.0791  -1.0791  -0.3026  -0.3026
     0.3182   0.3182   0.5681   0.5681   0.6590   0.6590   1.1233   1.1233

          k = 0.2501 0.0000 0.0000 ( 22899 PWs)   bands (ev):

   -23.2394 -23.2301  -8.8879  -8.7999  -8.6199  -8.5839  -8.4698  -8.4090
    -5.5694  -4.7737  -3.9591  -3.9559  -1.2857  -0.3555  -0.3009  -0.2086
     0.3922   0.4530   0.5017   0.5724   0.6785   0.7123   1.1417   1.1748

          k = 0.2501 0.0000 0.3608 ( 22880 PWs)   bands (ev):

   -23.2291 -23.2225  -8.8687  -8.8476  -8.7538  -8.6633  -8.5704  -8.5204
    -5.0202  -4.3962  -4.2066  -4.1735  -1.0297  -0.7707  -0.6331  -0.0457
    -0.0360   0.2837   0.5149   0.6581   0.8268   0.9528   1.1669   1.2036

          k = 0.2501 0.0000-0.7216 ( 22874 PWs)   bands (ev):

   -23.2168 -23.2168  -9.1219  -9.1217  -8.6039  -8.6039  -8.5394  -8.5393
    -4.5445  -4.5441  -4.1549  -4.1546  -1.3463  -1.3457  -0.3009  -0.3004
     0.3240   0.3245   0.7231   0.7243   0.8521   0.8523   1.1147   1.1151

          k = 0.2501 0.2438 0.0000 ( 22891 PWs)   bands (ev):

   -23.2380 -23.2315  -8.9276  -8.7684  -8.6950  -8.5154  -8.4604  -8.4174
    -5.4124  -4.7225  -4.2617  -3.9738  -0.9590  -0.5771  -0.3727   0.1261
     0.1925   0.2551   0.5914   0.7535   0.7616   0.8610   0.9205   1.0859

          k = 0.2501 0.2438 0.3608 ( 22877 PWs)   bands (ev):

   -23.2281 -23.2235  -8.8736  -8.8192  -8.8067  -8.6335  -8.5890  -8.5097
    -4.9256  -4.4586  -4.2686  -4.1762  -0.9948  -0.7505  -0.6220  -0.0195
     0.1342   0.3347   0.4412   0.6858   0.7929   0.9132   1.0834   1.1784

          k = 0.2501 0.2438-0.7216 ( 22890 PWs)   bands (ev):

   -23.2168 -23.2168  -9.1303  -9.0991  -8.6363  -8.5773  -8.5504  -8.5395
    -4.7947  -4.5540  -4.1328  -3.8837  -1.3220  -1.2201  -0.3894  -0.2351
     0.2629   0.2715   0.6857   0.7759   0.8428   0.9120   1.0599   1.0838

          k = 0.2501-0.4877 0.0000 ( 22910 PWs)   bands (ev):

   -23.2347 -23.2347  -8.8964  -8.8964  -8.5644  -8.5644  -8.4385  -8.4385
    -5.0074  -5.0074  -4.2273  -4.2273  -0.6345  -0.6345  -0.0995  -0.0995
     0.1210   0.1210   0.6465   0.6465   0.9284   0.9284   0.9344   0.9344

          k = 0.2501-0.4877 0.3608 ( 22874 PWs)   bands (ev):

   -23.2258 -23.2258  -8.8652  -8.8652  -8.7248  -8.7248  -8.5296  -8.5296
    -4.6938  -4.6938  -4.2363  -4.2363  -0.9033  -0.9033  -0.2583  -0.2583
     0.2846   0.2846   0.6443   0.6443   0.8109   0.8109   1.0522   1.0522

          k = 0.2501-0.4877-0.7216 ( 22896 PWs)   bands (ev):

   -23.2168 -23.2168  -9.1090  -9.1090  -8.6107  -8.6107  -8.5483  -8.5483
    -4.7955  -4.7955  -3.8702  -3.8702  -1.1918  -1.1918  -0.3719  -0.3719
     0.3974   0.3974   0.5340   0.5340   0.9216   0.9216   1.0687   1.0687

          k =-0.5002 0.0000 0.0000 ( 22984 PWs)   bands (ev):

   -23.2347 -23.2347  -8.7589  -8.7589  -8.7176  -8.7176  -8.4391  -8.4391
    -5.0701  -5.0701  -4.0670  -4.0670  -0.8195  -0.8195   0.0480   0.0480
     0.4473   0.4473   0.4596   0.4596   0.5470   0.5470   1.0094   1.0094

          k =-0.5002 0.0000 0.3608 ( 22918 PWs)   bands (ev):

   -23.2258 -23.2258  -8.8880  -8.8880  -8.6646  -8.6646  -8.5726  -8.5726
    -4.6209  -4.6209  -4.2723  -4.2723  -0.9604  -0.9604  -0.3340  -0.3340
     0.2951   0.2951   0.5048   0.5048   0.9150   0.9150   1.1552   1.1552

          k =-0.5002 0.0000-0.7216 ( 22844 PWs)   bands (ev):

   -23.2168 -23.2168  -9.1443  -9.1443  -8.5870  -8.5870  -8.5337  -8.5337
    -4.6123  -4.6123  -4.0423  -4.0423  -1.5808  -1.5808   0.0574   0.0574
     0.3307   0.3307   0.4978   0.4978   1.0539   1.0539   1.0650   1.0650

          k =-0.5002 0.2438 0.0000 ( 22878 PWs)   bands (ev):

   -23.2347 -23.2347  -8.8941  -8.8941  -8.5733  -8.5733  -8.4385  -8.4385
    -5.0549  -5.0549  -4.1220  -4.1220  -0.6992  -0.6992   0.0405   0.0405
     0.1940   0.1940   0.4104   0.4104   0.8279   0.8279   0.9910   0.9910

          k =-0.5002 0.2438 0.3608 ( 22878 PWs)   bands (ev):

   -23.2257 -23.2257  -8.8699  -8.8699  -8.7297  -8.7297  -8.5283  -8.5283
    -4.5791  -4.5791  -4.3184  -4.3184  -0.9677  -0.9677  -0.2935  -0.2935
     0.3283   0.3283   0.5505   0.5505   0.9079   0.9079   1.0790   1.0790

          k =-0.5002 0.2438-0.7216 ( 22888 PWs)   bands (ev):

   -23.2167 -23.2167  -9.1164  -9.1164  -8.6142  -8.6142  -8.5476  -8.5476
    -4.6113  -4.6113  -4.0301  -4.0301  -1.4587  -1.4587  -0.1835  -0.1835
     0.3731   0.3731   0.5899   0.5899   0.9748   0.9748   1.1341   1.1341

          k =-0.5002-0.4877 0.0000 ( 22904 PWs)   bands (ev):

   -23.2347 -23.2347  -8.9555  -8.9555  -8.5029  -8.5029  -8.4379  -8.4379
    -5.0385  -5.0385  -4.1768  -4.1768  -0.5310  -0.5310  -0.1204  -0.1204
     0.0778   0.0778   0.6006   0.6006   0.8313   0.8313   0.9723   0.9723

          k =-0.5002-0.4877 0.3608 ( 22896 PWs)   bands (ev):

   -23.2257 -23.2257  -8.8336  -8.8336  -8.7940  -8.7940  -8.5031  -8.5031
    -4.5156  -4.5156  -4.3856  -4.3856  -0.9589  -0.9589  -0.3245  -0.3245
     0.4923   0.4923   0.6386   0.6386   0.7926   0.7926   0.9915   0.9915

          k =-0.5002-0.4877-0.7216 ( 22944 PWs)   bands (ev):

   -23.2167 -23.2167  -9.0843  -9.0843  -8.6496  -8.6496  -8.5574  -8.5574
    -4.6116  -4.6116  -4.0159  -4.0159  -1.2759  -1.2759  -0.5150  -0.5150
     0.6278   0.6278   0.6761   0.6761   0.8224   0.8224   1.0926   1.0926

     highest occupied level (ev):     1.2579

!    total energy              =    -156.46978859 Ry
     estimated scf accuracy    <          2.0E-11 Ry

     The total energy is the sum of the following terms:
     one-electron contribution =     -18.17054951 Ry
     hartree contribution      =      24.40167114 Ry
     xc contribution           =     -49.35487444 Ry
     ewald contribution        =    -113.34603578 Ry

     convergence has been achieved in   8 iterations

     Forces acting on atoms (cartesian axes, Ry/au):

     atom    1 type  2   force =     0.00000000    0.00000000    0.00001356
     atom    2 type  2   force =     0.00000000    0.00000000   -0.00001356
     atom    3 type  1   force =    -0.00046389   -0.00195440   -0.00001243
     atom    4 type  1   force =     0.00046389    0.00195440   -0.00001243
     atom    5 type  1   force =    -0.00046389    0.00195440    0.00001243
     atom    6 type  1   force =     0.00046389   -0.00195440    0.00001243
     atom    7 type  3   force =    -0.00855194    0.00186881   -0.00001738
     atom    8 type  3   force =     0.00855194   -0.00186881   -0.00001738
     atom    9 type  3   force =    -0.00855194   -0.00186881    0.00001738
     atom   10 type  3   force =     0.00855194    0.00186881    0.00001738
     atom   11 type  3   force =     0.00563047    0.00625180    0.00000452
     atom   12 type  3   force =    -0.00563047   -0.00625180    0.00000452
     atom   13 type  3   force =     0.00563047   -0.00625180   -0.00000452
     atom   14 type  3   force =    -0.00563047    0.00625180   -0.00000452
     atom   15 type  3   force =     0.00073847   -0.00493084   -0.00715725
     atom   16 type  3   force =    -0.00073847    0.00493084   -0.00715725
     atom   17 type  3   force =     0.00073847    0.00493084    0.00715725
     atom   18 type  3   force =    -0.00073847   -0.00493084    0.00715725
     atom   19 type  3   force =    -0.00069730    0.00491393    0.00715006
     atom   20 type  3   force =     0.00069730   -0.00491393    0.00715006
     atom   21 type  3   force =    -0.00069730   -0.00491393   -0.00715006
     atom   22 type  3   force =     0.00069730    0.00491393   -0.00715006

     Total force =     0.034831     Total SCF correction =     0.000002


     Computing stress (Cartesian axis) and pressure

          total   stress  (Ry/bohr**3)                   (kbar)     P=       26.22
   0.00016650   0.00000000   0.00000000           24.49        0.00        0.00
   0.00000000   0.00016793   0.00000000            0.00       24.70        0.00
   0.00000000   0.00000000   0.00020031            0.00        0.00       29.47

     Volume is kept fixed: isostatic pressure set to zero
     Energy error            =      2.9E-03 Ry
     Gradient error          =      8.6E-03 Ry/Bohr
     Cell gradient error     =      3.2E+00 kbar

     number of scf cycles    =   2
     number of bfgs steps    =   1

     enthalpy           old  =    -156.4668470381 Ry
     enthalpy           new  =    -156.4697885879 Ry

     CASE: enthalpy          _new < enthalpy          _old

     new trust radius        =       0.0170496078 bohr
ibrav =      8
 celldm(1) =     12.39298631
 celldm(2) =      1.02576254
 celldm(3) =      0.69432658
Input lattice vectors:
     0.99900920     0.00000000     0.00000000
     0.00000000     1.02474621     0.00000000
     0.00000000     0.00000000     0.69363865
New lattice vectors in INITIAL alat:
     0.99900920     0.00000000     0.00000000
     0.00000000     1.02474621     0.00000000
     0.00000000     0.00000000     0.69363865
New lattice vectors in NEW alat (for information only):
     1.00000000     0.00000000     0.00000000
     0.00000000     1.02576254     0.00000000
     0.00000000     0.00000000     0.69432658
Discrepancy in bohr =     0.000000    0.000000    0.000000
     new conv_thr            =            1.0E-10 Ry

     new unit-cell volume =   1355.62177 a.u.^3 (   200.88242 Ang^3 )
     density =      2.76113 g/cm^3

CELL_PARAMETERS (alat= 12.40527740)
   0.999009204   0.000000000   0.000000000
   0.000000000   1.024746215   0.000000000
   0.000000000   0.000000000   0.693638648

ATOMIC_POSITIONS (crystal)
Ba               0.5000000000        0.5000000000        0.5001041415
Ba               0.0000000000        0.0000000000        0.9998958585
B                0.6101544184        0.2387646865        0.0000616356
B                0.3898455816        0.7612353135        0.0000616356
B                0.1101544184        0.2612353135        0.4999383644
B                0.8898455816        0.7387646865        0.4999383644
H                0.4315924548        0.2927264469        0.0002255720
H                0.5684075452        0.7072735531        0.0002255720
H                0.9315924548        0.2072735531        0.4997744280
H                0.0684075452        0.7927264469        0.4997744280
H                0.7237122913        0.3854154178       -0.0000069659
H                0.2762877087        0.6145845822       -0.0000069659
H                0.2237122913        0.1145845822        0.5000069659
H                0.7762877087        0.8854154178        0.5000069659
H                0.6395099240        0.1406731864        0.7773762584
H                0.3604900760        0.8593268136        0.7773762584
H                0.1395099240        0.3593268136        0.7226237416
H                0.8604900760        0.6406731864        0.7226237416
H                0.3602821362        0.8593730332        0.2226437636
H                0.6397178638        0.1406269668        0.2226437636
H                0.8602821362        0.6406269668        0.2773562364
H                0.1397178638        0.3593730332        0.2773562364



     Writing config-only to output data dir ./pwscf.save/ :
     XML data file
     NEW-OLD atomic charge density approx. for the potential

     total cpu time spent up to now is      306.6 secs

     Self-consistent Calculation

     iteration #  1     ecut=   100.00 Ry     beta= 0.70
     Davidson diagonalization with overlap
     ethr =  1.00E-06,  avg # of iterations =  4.0

     total cpu time spent up to now is      324.0 secs

     total energy              =    -156.47087191 Ry
     estimated scf accuracy    <       0.00116882 Ry

     iteration #  2     ecut=   100.00 Ry     beta= 0.70
     Davidson diagonalization with overlap
     ethr =  2.44E-06,  avg # of iterations =  2.0

     total cpu time spent up to now is      335.7 secs

     total energy              =    -156.47121368 Ry
     estimated scf accuracy    <       0.00024417 Ry

     iteration #  3     ecut=   100.00 Ry     beta= 0.70
     Davidson diagonalization with overlap
     ethr =  5.09E-07,  avg # of iterations =  2.0

     total cpu time spent up to now is      347.4 secs

     total energy              =    -156.47124481 Ry
     estimated scf accuracy    <       0.00000397 Ry

     iteration #  4     ecut=   100.00 Ry     beta= 0.70
     Davidson diagonalization with overlap
     ethr =  8.27E-09,  avg # of iterations =  3.0

     total cpu time spent up to now is      361.7 secs

     total energy              =    -156.47124671 Ry
     estimated scf accuracy    <       0.00000251 Ry

     iteration #  5     ecut=   100.00 Ry     beta= 0.70
     Davidson diagonalization with overlap
     ethr =  5.22E-09,  avg # of iterations =  2.0

     total cpu time spent up to now is      373.4 secs

     total energy              =    -156.47124701 Ry
     estimated scf accuracy    <       0.00000008 Ry

     iteration #  6     ecut=   100.00 Ry     beta= 0.70
     Davidson diagonalization with overlap
     ethr =  1.59E-10,  avg # of iterations =  4.2

     total cpu time spent up to now is      387.5 secs

     total energy              =    -156.47124705 Ry
     estimated scf accuracy    <       0.00000003 Ry

     iteration #  7     ecut=   100.00 Ry     beta= 0.70
     Davidson diagonalization with overlap
     ethr =  5.98E-11,  avg # of iterations =  3.3

     total cpu time spent up to now is      399.7 secs

     total energy              =    -156.47124706 Ry
     estimated scf accuracy    <          7.0E-10 Ry

     iteration #  8     ecut=   100.00 Ry     beta= 0.70
     Davidson diagonalization with overlap
     ethr =  1.45E-12,  avg # of iterations =  6.3

     total cpu time spent up to now is      419.8 secs

     End of self-consistent calculation

          k = 0.0000 0.0000 0.0000 ( 22893 PWs)   bands (ev):

   -23.2259 -23.2127  -8.9219  -8.8068  -8.5435  -8.4922  -8.4689  -8.3824
    -5.7700  -4.7156  -3.8458  -3.7158  -1.4976  -0.5128  -0.3672  -0.0404
     0.3614   0.3858   0.4697   0.5642   0.7442   1.2264   1.2306   1.2816

          k = 0.0000 0.0000 0.3604 ( 22897 PWs)   bands (ev):

   -23.2151 -23.2058  -8.8004  -8.7989  -8.7732  -8.7196  -8.5192  -8.4911
    -5.1613  -4.3842  -4.0753  -4.0015  -1.0591  -0.7761  -0.3269  -0.2501
    -0.0817   0.0626   0.4736   0.7981   0.9803   1.0535   1.1376   1.2976

          k = 0.0000 0.0000-0.7208 ( 22892 PWs)   bands (ev):

   -23.2016 -23.2016  -9.0776  -9.0773  -8.6103  -8.6103  -8.5291  -8.5291
    -4.3448  -4.3443  -4.2996  -4.2990  -0.8248  -0.8242  -0.8154  -0.8137
     0.3442   0.3452   0.5025   0.5043   1.1142   1.1145   1.1267   1.1268

          k = 0.0000 0.2440 0.0000 ( 22902 PWs)   bands (ev):

   -23.2240 -23.2146  -8.8856  -8.7652  -8.6227  -8.5417  -8.4560  -8.3948
    -5.5279  -4.6019  -4.1990  -3.8767  -1.0711  -0.5882  -0.5778   0.2534
     0.2861   0.3176   0.6211   0.7653   0.8528   0.8553   1.1268   1.1997

          k = 0.0000 0.2440 0.3604 ( 22894 PWs)   bands (ev):

   -23.2137 -23.2071  -8.8626  -8.8144  -8.6991  -8.6805  -8.5336  -8.5223
    -5.0453  -4.4759  -4.1173  -4.0419  -0.8535  -0.8039  -0.6250   0.0222
     0.0752   0.2888   0.2984   0.8573   0.9171   0.9940   1.0917   1.1554

          k = 0.0000 0.2440-0.7208 ( 22910 PWs)   bands (ev):

   -23.2016 -23.2016  -9.0952  -9.0950  -8.5839  -8.5839  -8.5277  -8.5277
    -4.7242  -4.7242  -3.9024  -3.9024  -0.9744  -0.9737  -0.5997  -0.5988
     0.4458   0.4461   0.5290   0.5306   0.9072   0.9073   1.1222   1.1224

          k = 0.0000-0.4879 0.0000 ( 22844 PWs)   bands (ev):

   -23.2193 -23.2193  -8.7775  -8.7775  -8.6541  -8.6541  -8.4251  -8.4251
    -4.9387  -4.9387  -4.2266  -4.2266  -0.7174  -0.7174  -0.0667  -0.0667
     0.1866   0.1866   0.7699   0.7699   0.9010   0.9010   1.0330   1.0330

          k = 0.0000-0.4879 0.3604 ( 22876 PWs)   bands (ev):

   -23.2104 -23.2104  -8.8641  -8.8641  -8.6169  -8.6169  -8.5801  -8.5801
    -4.7592  -4.7592  -4.1085  -4.1085  -0.7948  -0.7948  -0.3566  -0.3566
     0.3596   0.3596   0.6602   0.6602   0.8313   0.8313   1.0622   1.0622

          k = 0.0000-0.4879-0.7208 ( 22924 PWs)   bands (ev):

   -23.2015 -23.2015  -9.1113  -9.1113  -8.5611  -8.5611  -8.5241  -8.5241
    -4.8878  -4.8878  -3.7211  -3.7211  -1.0788  -1.0788  -0.3033  -0.3033
     0.3504   0.3504   0.5963   0.5963   0.6925   0.6925   1.1622   1.1622

          k = 0.2502 0.0000 0.0000 ( 22899 PWs)   bands (ev):

   -23.2239 -23.2146  -8.8707  -8.7848  -8.6040  -8.5696  -8.4560  -8.3948
    -5.5366  -4.7246  -3.9093  -3.9064  -1.2834  -0.3378  -0.2866  -0.1820
     0.4123   0.4702   0.5203   0.6027   0.6994   0.7450   1.1827   1.2194

          k = 0.2502 0.0000 0.3604 ( 22880 PWs)   bands (ev):

   -23.2137 -23.2071  -8.8520  -8.8304  -8.7375  -8.6479  -8.5555  -8.5060
    -4.9872  -4.3488  -4.1548  -4.1217  -1.0343  -0.7624  -0.6321  -0.0201
    -0.0174   0.3055   0.5458   0.6899   0.8581   0.9862   1.2071   1.2397

          k = 0.2502 0.0000-0.7208 ( 22874 PWs)   bands (ev):

   -23.2015 -23.2015  -9.1021  -9.1019  -8.5903  -8.5903  -8.5248  -8.5248
    -4.4926  -4.4922  -4.1110  -4.1106  -1.3518  -1.3513  -0.2960  -0.2957
     0.3549   0.3554   0.7532   0.7546   0.8848   0.8850   1.1526   1.1530

          k = 0.2502 0.2440 0.0000 ( 22891 PWs)   bands (ev):

   -23.2225 -23.2160  -8.9111  -8.7521  -8.6802  -8.5006  -8.4466  -8.4033
    -5.3774  -4.6737  -4.2169  -3.9257  -0.9493  -0.5639  -0.3522   0.1492
     0.2093   0.2718   0.6255   0.7748   0.7971   0.8836   0.9594   1.1237

          k = 0.2502 0.2440 0.3604 ( 22877 PWs)   bands (ev):

   -23.2127 -23.2081  -8.8566  -8.8020  -8.7914  -8.6169  -8.5749  -8.4952
    -4.8903  -4.4106  -4.2219  -4.1245  -0.9966  -0.7490  -0.6117   0.0016
     0.1567   0.3587   0.4700   0.7156   0.8272   0.9482   1.1195   1.2145

          k = 0.2502 0.2440-0.7208 ( 22890 PWs)   bands (ev):

   -23.2015 -23.2015  -9.1105  -9.0793  -8.6227  -8.5638  -8.5361  -8.5248
    -4.7448  -4.5046  -4.0865  -3.8381  -1.3269  -1.2255  -0.3826  -0.2313
     0.2925   0.3016   0.7126   0.8058   0.8797   0.9469   1.0936   1.1253

          k = 0.2502-0.4879 0.0000 ( 22910 PWs)   bands (ev):

   -23.2192 -23.2192  -8.8802  -8.8802  -8.5494  -8.5494  -8.4245  -8.4245
    -4.9665  -4.9665  -4.1816  -4.1816  -0.6205  -0.6205  -0.0752  -0.0752
     0.1368   0.1368   0.6781   0.6781   0.9516   0.9516   0.9721   0.9721

          k = 0.2502-0.4879 0.3604 ( 22874 PWs)   bands (ev):

   -23.2104 -23.2104  -8.8487  -8.8487  -8.7087  -8.7087  -8.5150  -8.5150
    -4.6523  -4.6523  -4.1879  -4.1879  -0.9026  -0.9026  -0.2415  -0.2415
     0.3081   0.3081   0.6742   0.6742   0.8455   0.8455   1.0870   1.0870

          k = 0.2502-0.4879-0.7208 ( 22896 PWs)   bands (ev):

   -23.2015 -23.2015  -9.0893  -9.0893  -8.5972  -8.5972  -8.5338  -8.5338
    -4.7467  -4.7467  -3.8235  -3.8235  -1.1961  -1.1961  -0.3658  -0.3658
     0.4281   0.4281   0.5616   0.5616   0.9563   0.9563   1.1068   1.1068

          k =-0.5005 0.0000 0.0000 ( 22984 PWs)   bands (ev):

   -23.2192 -23.2192  -8.7419  -8.7419  -8.7033  -8.7033  -8.4251  -8.4251
    -5.0310  -5.0310  -4.0165  -4.0165  -0.8127  -0.8127   0.0687   0.0687
     0.4607   0.4607   0.4950   0.4950   0.5717   0.5717   1.0515   1.0515

          k =-0.5005 0.0000 0.3604 ( 22918 PWs)   bands (ev):

   -23.2104 -23.2104  -8.8712  -8.8712  -8.6486  -8.6486  -8.5581  -8.5581
    -4.5817  -4.5817  -4.2203  -4.2203  -0.9629  -0.9629  -0.3197  -0.3197
     0.3235   0.3235   0.5338   0.5338   0.9457   0.9457   1.1946   1.1946

          k =-0.5005 0.0000-0.7208 ( 22844 PWs)   bands (ev):

   -23.2015 -23.2015  -9.1247  -9.1247  -8.5734  -8.5734  -8.5191  -8.5191
    -4.5582  -4.5582  -3.9997  -3.9997  -1.5886  -1.5886   0.0642   0.0642
     0.3616   0.3616   0.5277   0.5277   1.0949   1.0949   1.0965   1.0965

          k =-0.5005 0.2440 0.0000 ( 22878 PWs)   bands (ev):

   -23.2192 -23.2192  -8.8782  -8.8782  -8.5582  -8.5582  -8.4245  -8.4245
    -5.0135  -5.0135  -4.0757  -4.0757  -0.6864  -0.6864   0.0628   0.0628
     0.2096   0.2096   0.4412   0.4412   0.8510   0.8510   1.0313   1.0313

          k =-0.5005 0.2440 0.3604 ( 22878 PWs)   bands (ev):

   -23.2104 -23.2104  -8.8534  -8.8534  -8.7136  -8.7136  -8.5137  -8.5137
    -4.5382  -4.5382  -4.2686  -4.2686  -0.9690  -0.9690  -0.2774  -0.2774
     0.3564   0.3564   0.5787   0.5787   0.9408   0.9408   1.1149   1.1149

          k =-0.5005 0.2440-0.7208 ( 22888 PWs)   bands (ev):

   -23.2015 -23.2015  -9.0967  -9.0967  -8.6007  -8.6007  -8.5331  -8.5331
    -4.5590  -4.5590  -3.9857  -3.9857  -1.4662  -1.4662  -0.1746  -0.1746
     0.4014   0.4014   0.6203   0.6203   1.0114   1.0114   1.1705   1.1705

          k =-0.5005-0.4879 0.0000 ( 22904 PWs)   bands (ev):

   -23.2192 -23.2192  -8.9396  -8.9396  -8.4879  -8.4879  -8.4239  -8.4239
    -4.9945  -4.9945  -4.1347  -4.1347  -0.5082  -0.5082  -0.1033  -0.1033
     0.0927   0.0927   0.6345   0.6345   0.8643   0.8643   0.9966   0.9966

          k =-0.5005-0.4879 0.3604 ( 22896 PWs)   bands (ev):

   -23.2103 -23.2103  -8.8186  -8.8186  -8.7763  -8.7763  -8.4886  -8.4886
    -4.4720  -4.4720  -4.3391  -4.3391  -0.9593  -0.9593  -0.3074  -0.3074
     0.5176   0.5176   0.6737   0.6737   0.8265   0.8265   1.0206   1.0206

          k =-0.5005-0.4879-0.7208 ( 22944 PWs)   bands (ev):

   -23.2014 -23.2014  -9.0643  -9.0643  -8.6361  -8.6361  -8.5431  -8.5431
    -4.5611  -4.5611  -3.9697  -3.9697  -1.2829  -1.2829  -0.5076  -0.5076
     0.6571   0.6571   0.7114   0.7114   0.8571   0.8571   1.1261   1.1261

     highest occupied level (ev):     1.2976

!    total energy              =    -156.47124706 Ry
     estimated scf accuracy    <          2.4E-11 Ry

     The total energy is the sum of the following terms:
     one-electron contribution =     -17.64564283 Ry
     hartree contribution      =      24.14197280 Ry
     xc contribution           =     -49.29146192 Ry
     ewald contribution        =    -113.67611511 Ry

     convergence has been achieved in   8 iterations

     Forces acting on atoms (cartesian axes, Ry/au):

     atom    1 type  2   force =     0.00000000    0.00000000    0.00000803
     atom    2 type  2   force =     0.00000000    0.00000000   -0.00000803
     atom    3 type  1   force =    -0.00060746   -0.00116467   -0.00000907
     atom    4 type  1   force =     0.00060746    0.00116467   -0.00000907
     atom    5 type  1   force =    -0.00060746    0.00116467    0.00000907
     atom    6 type  1   force =     0.00060746   -0.00116467    0.00000907
     atom    7 type  3   force =    -0.00218056   -0.00004545   -0.00002314
     atom    8 type  3   force =     0.00218056    0.00004545   -0.00002314
     atom    9 type  3   force =    -0.00218056    0.00004545    0.00002314
     atom   10 type  3   force =     0.00218056   -0.00004545    0.00002314
     atom   11 type  3   force =     0.00123950    0.00037722    0.00000519
     atom   12 type  3   force =    -0.00123950   -0.00037722    0.00000519
     atom   13 type  3   force =     0.00123950   -0.00037722   -0.00000519
     atom   14 type  3   force =    -0.00123950    0.00037722   -0.00000519
     atom   15 type  3   force =    -0.00031649   -0.00143036   -0.00126451
     atom   16 type  3   force =     0.00031649    0.00143036   -0.00126451
     atom   17 type  3   force =    -0.00031649    0.00143036    0.00126451
     atom   18 type  3   force =     0.00031649   -0.00143036    0.00126451
     atom   19 type  3   force =     0.00036209    0.00141525    0.00126098
     atom   20 type  3   force =    -0.00036209   -0.00141525    0.00126098
     atom   21 type  3   force =     0.00036209   -0.00141525   -0.00126098
     atom   22 type  3   force =    -0.00036209    0.00141525   -0.00126098

     Total force =     0.007907     Total SCF correction =     0.000002


     Computing stress (Cartesian axis) and pressure

          total   stress  (Ry/bohr**3)                   (kbar)     P=       17.53
   0.00011185   0.00000000   0.00000000           16.45        0.00        0.00
   0.00000000   0.00011141   0.00000000            0.00       16.39        0.00
   0.00000000   0.00000000   0.00013422            0.00        0.00       19.74

     Volume is kept fixed: isostatic pressure set to zero
     Energy error            =      1.5E-03 Ry
     Gradient error          =      2.2E-03 Ry/Bohr
     Cell gradient error     =      2.2E+00 kbar

     number of scf cycles    =   3
     number of bfgs steps    =   2

     enthalpy           old  =    -156.4697885879 Ry
     enthalpy           new  =    -156.4712470600 Ry

     CASE: enthalpy          _new < enthalpy          _old

     new trust radius        =       0.0051848894 bohr
ibrav =      8
 celldm(1) =     12.38909974
 celldm(2) =      1.02575931
 celldm(3) =      0.69498243
Input lattice vectors:
     0.99869591     0.00000000     0.00000000
     0.00000000     1.02442162     0.00000000
     0.00000000     0.00000000     0.69407610
New lattice vectors in INITIAL alat:
     0.99869591     0.00000000     0.00000000
     0.00000000     1.02442162     0.00000000
     0.00000000     0.00000000     0.69407610
New lattice vectors in NEW alat (for information only):
     1.00000000     0.00000000     0.00000000
     0.00000000     1.02575931     0.00000000
     0.00000000     0.00000000     0.69498243
Discrepancy in bohr =     0.000000    0.000000    0.000000
     new conv_thr            =            1.0E-10 Ry

     new unit-cell volume =   1355.62177 a.u.^3 (   200.88242 Ang^3 )
     density =      2.76113 g/cm^3

CELL_PARAMETERS (alat= 12.40527740)
   0.998695905   0.000000000   0.000000000
   0.000000000   1.024421618   0.000000000
   0.000000000   0.000000000   0.694076102

ATOMIC_POSITIONS (crystal)
Ba               0.5000000000        0.5000000000        0.5001057675
Ba               0.0000000000        0.0000000000        0.9998942325
B                0.6100820437        0.2386065006        0.0000598959
B                0.3899179563        0.7613934994        0.0000598959
B                0.1100820437        0.2613934994        0.4999401041
B                0.8899179563        0.7386065006        0.4999401041
H                0.4311758178        0.2927634649        0.0002215915
H                0.5688241822        0.7072365351        0.0002215915
H                0.9311758178        0.2072365351        0.4997784085
H                0.0688241822        0.7927634649        0.4997784085
H                0.7239665317        0.3855916335       -0.0000060531
H                0.2760334683        0.6144083665       -0.0000060531
H                0.2239665317        0.1144083665        0.5000060531
H                0.7760334683        0.8855916335        0.5000060531
H                0.6394946358        0.1404214871        0.7769538548
H                0.3605053642        0.8595785129        0.7769538548
H                0.1394946358        0.3595785129        0.7230461452
H                0.8605053642        0.6404214871        0.7230461452
H                0.3603029978        0.8596228574        0.2230654061
H                0.6396970022        0.1403771426        0.2230654061
H                0.8603029978        0.6403771426        0.2769345939
H                0.1396970022        0.3596228574        0.2769345939



     Writing config-only to output data dir ./pwscf.save/ :
     XML data file
     NEW-OLD atomic charge density approx. for the potential

     total cpu time spent up to now is      431.7 secs

     Self-consistent Calculation

     iteration #  1     ecut=   100.00 Ry     beta= 0.70
     Davidson diagonalization with overlap
     ethr =  1.00E-06,  avg # of iterations =  3.0

     total cpu time spent up to now is      445.7 secs

     total energy              =    -156.47132697 Ry
     estimated scf accuracy    <       0.00007075 Ry

     iteration #  2     ecut=   100.00 Ry     beta= 0.70
     Davidson diagonalization with overlap
     ethr =  1.47E-07,  avg # of iterations =  2.0

     total cpu time spent up to now is      457.4 secs

     total energy              =    -156.47134478 Ry
     estimated scf accuracy    <       0.00000745 Ry

     iteration #  3     ecut=   100.00 Ry     beta= 0.70
     Davidson diagonalization with overlap
     ethr =  1.55E-08,  avg # of iterations =  2.0

     total cpu time spent up to now is      469.1 secs

     total energy              =    -156.47134584 Ry
     estimated scf accuracy    <       0.00000012 Ry

     iteration #  4     ecut=   100.00 Ry     beta= 0.70
     Davidson diagonalization with overlap
     ethr =  2.49E-10,  avg # of iterations =  4.3

     total cpu time spent up to now is      484.3 secs

     total energy              =    -156.47134589 Ry
     estimated scf accuracy    <       0.00000007 Ry

     iteration #  5     ecut=   100.00 Ry     beta= 0.70
     Davidson diagonalization with overlap
     ethr =  1.47E-10,  avg # of iterations =  2.1

     total cpu time spent up to now is      496.0 secs

     total energy              =    -156.47134591 Ry
     estimated scf accuracy    <          1.7E-09 Ry

     iteration #  6     ecut=   100.00 Ry     beta= 0.70
     Davidson diagonalization with overlap
     ethr =  3.64E-12,  avg # of iterations =  5.3

     total cpu time spent up to now is      513.4 secs

     End of self-consistent calculation

          k = 0.0000 0.0000 0.0000 ( 22893 PWs)   bands (ev):

   -23.2224 -23.2092  -8.9172  -8.8029  -8.5395  -8.4887  -8.4659  -8.3791
    -5.7616  -4.7013  -3.8323  -3.7012  -1.4958  -0.5062  -0.3641  -0.0291
     0.3666   0.3921   0.4710   0.5695   0.7468   1.2378   1.2420   1.2969

          k = 0.0000 0.0000 0.3602 ( 22897 PWs)   bands (ev):

   -23.2117 -23.2023  -8.7954  -8.7948  -8.7679  -8.7162  -8.5155  -8.4878
    -5.1537  -4.3719  -4.0605  -3.9858  -1.0595  -0.7743  -0.3244  -0.2435
    -0.0779   0.0664   0.4812   0.8072   0.9905   1.0656   1.1468   1.3107

          k = 0.0000 0.0000-0.7204 ( 22892 PWs)   bands (ev):

   -23.1982 -23.1982  -9.0711  -9.0709  -8.6074  -8.6073  -8.5257  -8.5256
    -4.3356  -4.3352  -4.2831  -4.2825  -0.8259  -0.8253  -0.8143  -0.8127
     0.3526   0.3535   0.5098   0.5116   1.1280   1.1281   1.1363   1.1366

          k = 0.0000 0.2440 0.0000 ( 22902 PWs)   bands (ev):

   -23.2204 -23.2111  -8.8810  -8.7612  -8.6187  -8.5381  -8.4529  -8.3915
    -5.5190  -4.5871  -4.1879  -3.8624  -1.0670  -0.5830  -0.5742   0.2571
     0.2885   0.3290   0.6301   0.7697   0.8568   0.8680   1.1381   1.2112

          k = 0.0000 0.2440 0.3602 ( 22894 PWs)   bands (ev):

   -23.2103 -23.2037  -8.8580  -8.8095  -8.6945  -8.6768  -8.5297  -8.5189
    -5.0370  -4.4637  -4.1037  -4.0269  -0.8527  -0.8024  -0.6223   0.0251
     0.0810   0.2981   0.3040   0.8669   0.9273   1.0063   1.1009   1.1667

          k = 0.0000 0.2440-0.7204 ( 22910 PWs)   bands (ev):

   -23.1982 -23.1982  -9.0889  -9.0888  -8.5809  -8.5809  -8.5242  -8.5242
    -4.7114  -4.7114  -3.8899  -3.8899  -0.9734  -0.9727  -0.6002  -0.5993
     0.4544   0.4548   0.5374   0.5390   0.9168   0.9168   1.1347   1.1349

          k = 0.0000-0.4881 0.0000 ( 22844 PWs)   bands (ev):

   -23.2157 -23.2157  -8.7730  -8.7730  -8.6506  -8.6506  -8.4219  -8.4219
    -4.9282  -4.9282  -4.2131  -4.2131  -0.7141  -0.7141  -0.0581  -0.0581
     0.1892   0.1892   0.7827   0.7827   0.9057   0.9057   1.0433   1.0433

          k = 0.0000-0.4881 0.3602 ( 22876 PWs)   bands (ev):

   -23.2070 -23.2070  -8.8595  -8.8595  -8.6126  -8.6126  -8.5767  -8.5767
    -4.7488  -4.7488  -4.0948  -4.0948  -0.7936  -0.7936  -0.3526  -0.3526
     0.3666   0.3666   0.6668   0.6668   0.8444   0.8444   1.0717   1.0717

          k = 0.0000-0.4881-0.7204 ( 22924 PWs)   bands (ev):

   -23.1981 -23.1981  -9.1051  -9.1051  -8.5581  -8.5581  -8.5204  -8.5204
    -4.8749  -4.8749  -3.7090  -3.7090  -1.0778  -1.0778  -0.3039  -0.3039
     0.3606   0.3606   0.6038   0.6038   0.7025   0.7025   1.1745   1.1745

          k = 0.2503 0.0000 0.0000 ( 22899 PWs)   bands (ev):

   -23.2204 -23.2111  -8.8661  -8.7811  -8.5998  -8.5661  -8.4529  -8.3915
    -5.5275  -4.7109  -3.8956  -3.8928  -1.2811  -0.3313  -0.2830  -0.1741
     0.4159   0.4732   0.5238   0.6135   0.7035   0.7539   1.1947   1.2346

          k = 0.2503 0.0000 0.3602 ( 22880 PWs)   bands (ev):

   -23.2103 -23.2037  -8.8475  -8.8257  -8.7332  -8.6440  -8.5518  -8.5025
    -4.9788  -4.3365  -4.1402  -4.1071  -1.0356  -0.7594  -0.6317  -0.0130
    -0.0121   0.3111   0.5552   0.6992   0.8662   0.9955   1.2206   1.2503

          k = 0.2503 0.0000-0.7204 ( 22874 PWs)   bands (ev):

   -23.1981 -23.1981  -9.0959  -9.0957  -8.5873  -8.5872  -8.5213  -8.5213
    -4.4780  -4.4777  -4.0998  -4.0995  -1.3533  -1.3528  -0.2946  -0.2943
     0.3635   0.3639   0.7619   0.7633   0.8951   0.8953   1.1642   1.1647

          k = 0.2503 0.2440 0.0000 ( 22891 PWs)   bands (ev):

   -23.2190 -23.2124  -8.9068  -8.7478  -8.6765  -8.4968  -8.4435  -8.4000
    -5.3676  -4.6597  -4.2051  -3.9126  -0.9447  -0.5596  -0.3461   0.1566
     0.2119   0.2744   0.6364   0.7793   0.8089   0.8884   0.9708   1.1356

          k = 0.2503 0.2440 0.3602 ( 22877 PWs)   bands (ev):

   -23.2093 -23.2046  -8.8519  -8.7970  -8.7877  -8.6125  -8.5715  -8.4917
    -4.8812  -4.3978  -4.2091  -4.1100  -0.9971  -0.7484  -0.6079   0.0073
     0.1632   0.3653   0.4783   0.7236   0.8378   0.9588   1.1298   1.2253

          k = 0.2503 0.2440-0.7204 ( 22890 PWs)   bands (ev):

   -23.1981 -23.1981  -9.1043  -9.0730  -8.6198  -8.5607  -8.5327  -8.5213
    -4.7310  -4.4910  -4.0743  -3.8264  -1.3279  -1.2269  -0.3802  -0.2304
     0.3007   0.3107   0.7200   0.8139   0.8921   0.9572   1.1028   1.1392

          k = 0.2503-0.4881 0.0000 ( 22910 PWs)   bands (ev):

   -23.2157 -23.2157  -8.8760  -8.8760  -8.5456  -8.5456  -8.4213  -8.4213
    -4.9547  -4.9547  -4.1696  -4.1696  -0.6155  -0.6155  -0.0669  -0.0669
     0.1391   0.1391   0.6883   0.6883   0.9567   0.9567   0.9835   0.9835

          k = 0.2503-0.4881 0.3602 ( 22874 PWs)   bands (ev):

   -23.2069 -23.2069  -8.8442  -8.8442  -8.7044  -8.7044  -8.5114  -8.5114
    -4.6413  -4.6413  -4.1746  -4.1746  -0.9023  -0.9023  -0.2360  -0.2360
     0.3144   0.3144   0.6828   0.6828   0.8565   0.8565   1.0966   1.0966

          k = 0.2503-0.4881-0.7204 ( 22896 PWs)   bands (ev):

   -23.1981 -23.1981  -9.0830  -9.0830  -8.5943  -8.5943  -8.5303  -8.5303
    -4.7333  -4.7333  -3.8114  -3.8114  -1.1969  -1.1969  -0.3641  -0.3641
     0.4374   0.4374   0.5693   0.5693   0.9669   0.9669   1.1183   1.1183

          k =-0.5007 0.0000 0.0000 ( 22984 PWs)   bands (ev):

   -23.2157 -23.2157  -8.7374  -8.7374  -8.6998  -8.6998  -8.4219  -8.4219
    -5.0200  -5.0200  -4.0028  -4.0028  -0.8091  -0.8091   0.0741   0.0741
     0.4620   0.4620   0.5056   0.5056   0.5775   0.5775   1.0657   1.0657

          k =-0.5007 0.0000 0.3602 ( 22918 PWs)   bands (ev):

   -23.2069 -23.2069  -8.8666  -8.8666  -8.6445  -8.6445  -8.5544  -8.5544
    -4.5712  -4.5712  -4.2060  -4.2060  -0.9639  -0.9639  -0.3147  -0.3147
     0.3314   0.3314   0.5420   0.5420   0.9538   0.9538   1.2071   1.2071

          k =-0.5007 0.0000-0.7204 ( 22844 PWs)   bands (ev):

   -23.1981 -23.1981  -9.1186  -9.1186  -8.5703  -8.5703  -8.5156  -8.5156
    -4.5426  -4.5426  -3.9893  -3.9893  -1.5908  -1.5908   0.0664   0.0664
     0.3703   0.3703   0.5369   0.5369   1.1051   1.1051   1.1083   1.1083

          k =-0.5007 0.2440 0.0000 ( 22878 PWs)   bands (ev):

   -23.2157 -23.2157  -8.8741  -8.8741  -8.5544  -8.5544  -8.4213  -8.4213
    -5.0016  -5.0016  -4.0633  -4.0633  -0.6812  -0.6812   0.0694   0.0694
     0.2118   0.2118   0.4502   0.4502   0.8561   0.8561   1.0445   1.0445

          k =-0.5007 0.2440 0.3602 ( 22878 PWs)   bands (ev):

   -23.2069 -23.2069  -8.8490  -8.8490  -8.7092  -8.7092  -8.5101  -8.5101
    -4.5273  -4.5273  -4.2549  -4.2549  -0.9696  -0.9696  -0.2721  -0.2721
     0.3643   0.3643   0.5868   0.5868   0.9495   0.9495   1.1262   1.1262

          k =-0.5007 0.2440-0.7204 ( 22888 PWs)   bands (ev):

   -23.1981 -23.1981  -9.0904  -9.0904  -8.5977  -8.5977  -8.5296  -8.5296
    -4.5442  -4.5442  -3.9745  -3.9745  -1.4682  -1.4682  -0.1720  -0.1720
     0.4100   0.4100   0.6291   0.6291   1.0229   1.0229   1.1810   1.1810

          k =-0.5007-0.4881 0.0000 ( 22904 PWs)   bands (ev):

   -23.2156 -23.2156  -8.9355  -8.9355  -8.4841  -8.4841  -8.4207  -8.4207
    -4.9816  -4.9816  -4.1238  -4.1238  -0.5001  -0.5001  -0.0981  -0.0981
     0.0946   0.0946   0.6454   0.6454   0.8745   0.8745   1.0021   1.0021

          k =-0.5007-0.4881 0.3602 ( 22896 PWs)   bands (ev):

   -23.2069 -23.2069  -8.8150  -8.8150  -8.7711  -8.7711  -8.4851  -8.4851
    -4.4601  -4.4601  -4.3266  -4.3266  -0.9594  -0.9594  -0.3023  -0.3023
     0.5253   0.5253   0.6842   0.6842   0.8368   0.8368   1.0282   1.0282

          k =-0.5007-0.4881-0.7204 ( 22944 PWs)   bands (ev):

   -23.1980 -23.1980  -9.0578  -9.0578  -8.6333  -8.6333  -8.5397  -8.5397
    -4.5470  -4.5470  -3.9578  -3.9578  -1.2847  -1.2847  -0.5056  -0.5056
     0.6651   0.6651   0.7228   0.7228   0.8686   0.8686   1.1350   1.1350

     highest occupied level (ev):     1.3107

!    total energy              =    -156.47134591 Ry
     estimated scf accuracy    <          9.0E-11 Ry

     The total energy is the sum of the following terms:
     one-electron contribution =     -17.48651379 Ry
     hartree contribution      =      24.06323774 Ry
     xc contribution           =     -49.27396861 Ry
     ewald contribution        =    -113.77410125 Ry

     convergence has been achieved in   6 iterations

     Forces acting on atoms (cartesian axes, Ry/au):

     atom    1 type  2   force =     0.00000000    0.00000000    0.00000432
     atom    2 type  2   force =     0.00000000    0.00000000   -0.00000432
     atom    3 type  1   force =    -0.00056042   -0.00087388   -0.00000791
     atom    4 type  1   force =     0.00056042    0.00087388   -0.00000791
     atom    5 type  1   force =    -0.00056042    0.00087388    0.00000791
     atom    6 type  1   force =     0.00056042   -0.00087388    0.00000791
     atom    7 type  3   force =    -0.00058066   -0.00049804   -0.00002463
     atom    8 type  3   force =     0.00058066    0.00049804   -0.00002463
     atom    9 type  3   force =    -0.00058066    0.00049804    0.00002463
     atom   10 type  3   force =     0.00058066   -0.00049804    0.00002463
     atom   11 type  3   force =     0.00006149   -0.00113223    0.00000494
     atom   12 type  3   force =    -0.00006149    0.00113223    0.00000494
     atom   13 type  3   force =     0.00006149    0.00113223   -0.00000494
     atom   14 type  3   force =    -0.00006149   -0.00113223   -0.00000494
     atom   15 type  3   force =    -0.00059611   -0.00055702    0.00036484
     atom   16 type  3   force =     0.00059611    0.00055702    0.00036484
     atom   17 type  3   force =    -0.00059611    0.00055702   -0.00036484
     atom   18 type  3   force =     0.00059611   -0.00055702   -0.00036484
     atom   19 type  3   force =     0.00064100    0.00054419   -0.00036623
     atom   20 type  3   force =    -0.00064100   -0.00054419   -0.00036623
     atom   21 type  3   force =     0.00064100   -0.00054419    0.00036623
     atom   22 type  3   force =    -0.00064100    0.00054419    0.00036623

     Total force =     0.004285     Total SCF correction =     0.000005


     Computing stress (Cartesian axis) and pressure

          total   stress  (Ry/bohr**3)                   (kbar)     P=       15.15
   0.00009786   0.00000000   0.00000000           14.40        0.00        0.00
   0.00000000   0.00009697   0.00000000            0.00       14.27        0.00
   0.00000000   0.00000000   0.00011409            0.00        0.00       16.78

     Volume is kept fixed: isostatic pressure set to zero
     Energy error            =      9.9E-05 Ry
     Gradient error          =      1.1E-03 Ry/Bohr
     Cell gradient error     =      1.6E+00 kbar

     number of scf cycles    =   4
     number of bfgs steps    =   3

     enthalpy           old  =    -156.4712470600 Ry
     enthalpy           new  =    -156.4713459126 Ry

     CASE: enthalpy          _new < enthalpy          _old

     new trust radius        =       0.0034067930 bohr
ibrav =      8
 celldm(1) =     12.38638999
 celldm(2) =      1.02573288
 celldm(3) =      0.69545656
Input lattice vectors:
     0.99847747     0.00000000     0.00000000
     0.00000000     1.02417117     0.00000000
     0.00000000     0.00000000     0.69439771
New lattice vectors in INITIAL alat:
     0.99847747     0.00000000     0.00000000
     0.00000000     1.02417117     0.00000000
     0.00000000     0.00000000     0.69439771
New lattice vectors in NEW alat (for information only):
     1.00000000     0.00000000     0.00000000
     0.00000000     1.02573288     0.00000000
     0.00000000     0.00000000     0.69545656
Discrepancy in bohr =     0.000000    0.000000    0.000000
     new conv_thr            =            9.9E-12 Ry

     new unit-cell volume =   1355.62177 a.u.^3 (   200.88242 Ang^3 )
     density =      2.76113 g/cm^3

CELL_PARAMETERS (alat= 12.40527740)
   0.998477470   0.000000000   0.000000000
   0.000000000   1.024171172   0.000000000
   0.000000000   0.000000000   0.694397708

ATOMIC_POSITIONS (crystal)
Ba               0.5000000000        0.5000000000        0.5001067092
Ba               0.0000000000        0.0000000000        0.9998932908
B                0.6100136358        0.2384915669        0.0000584337
B                0.3899863642        0.7615084331        0.0000584337
B                0.1100136358        0.2615084331        0.4999415663
B                0.8899863642        0.7384915669        0.4999415663
H                0.4310238663        0.2927274999        0.0002173546
H                0.5689761337        0.7072725001        0.0002173546
H                0.9310238663        0.2072725001        0.4997826454
H                0.0689761337        0.7927274999        0.4997826454
H                0.7240317238        0.3855309994       -0.0000051809
H                0.2759682762        0.6144690006       -0.0000051809
H                0.2240317238        0.1144690006        0.5000051809
H                0.7759682762        0.8855309994        0.5000051809
H                0.6394359691        0.1403116816        0.7769038844
H                0.3605640309        0.8596883184        0.7769038844
H                0.1394359691        0.3596883184        0.7230961156
H                0.8605640309        0.6403116816        0.7230961156
H                0.3603671136        0.8597310749        0.2231150171
H                0.6396328864        0.1402689251        0.2231150171
H                0.8603671136        0.6402689251        0.2768849829
H                0.1396328864        0.3597310749        0.2768849829



     Writing config-only to output data dir ./pwscf.save/ :
     XML data file
     NEW-OLD atomic charge density approx. for the potential

     total cpu time spent up to now is      525.2 secs

     Self-consistent Calculation

     iteration #  1     ecut=   100.00 Ry     beta= 0.70
     Davidson diagonalization with overlap
     ethr =  1.00E-06,  avg # of iterations =  2.0

     Threshold (ethr) on eigenvalues was too large:
     Diagonalizing with lowered threshold

     Davidson diagonalization with overlap
     ethr =  9.41E-09,  avg # of iterations =  2.8

     total cpu time spent up to now is      549.2 secs

     total energy              =    -156.47137567 Ry
     estimated scf accuracy    <       0.00000612 Ry

     iteration #  2     ecut=   100.00 Ry     beta= 0.70
     Davidson diagonalization with overlap
     ethr =  1.28E-08,  avg # of iterations =  2.0

     total cpu time spent up to now is      560.9 secs

     total energy              =    -156.47137707 Ry
     estimated scf accuracy    <       0.00000065 Ry

     iteration #  3     ecut=   100.00 Ry     beta= 0.70
     Davidson diagonalization with overlap
     ethr =  1.35E-09,  avg # of iterations =  2.0

     total cpu time spent up to now is      572.6 secs

     total energy              =    -156.47137717 Ry
     estimated scf accuracy    <       0.00000002 Ry

     iteration #  4     ecut=   100.00 Ry     beta= 0.70
     Davidson diagonalization with overlap
     ethr =  3.45E-11,  avg # of iterations =  5.0

     total cpu time spent up to now is      587.1 secs

     total energy              =    -156.47137717 Ry
     estimated scf accuracy    <          3.4E-09 Ry

     iteration #  5     ecut=   100.00 Ry     beta= 0.70
     Davidson diagonalization with overlap
     ethr =  7.14E-12,  avg # of iterations =  4.1

     total cpu time spent up to now is      600.8 secs

     total energy              =    -156.47137717 Ry
     estimated scf accuracy    <          8.3E-11 Ry

     iteration #  6     ecut=   100.00 Ry     beta= 0.70
     Davidson diagonalization with overlap
     ethr =  1.72E-13,  avg # of iterations =  5.7

     total cpu time spent up to now is      620.2 secs

     End of self-consistent calculation

          k = 0.0000 0.0000 0.0000 ( 22893 PWs)   bands (ev):

   -23.2224 -23.2092  -8.9163  -8.8023  -8.5389  -8.4884  -8.4660  -8.3790
    -5.7597  -4.6983  -3.8294  -3.6978  -1.4935  -0.5044  -0.3631  -0.0249
     0.3668   0.3957   0.4688   0.5699   0.7451   1.2411   1.2445   1.3029

          k = 0.0000 0.0000 0.3600 ( 22897 PWs)   bands (ev):

   -23.2117 -23.2024  -8.7943  -8.7941  -8.7664  -8.7160  -8.5151  -8.4876
    -5.1530  -4.3702  -4.0568  -3.9817  -1.0589  -0.7730  -0.3226  -0.2420
    -0.0778   0.0662   0.4833   0.8092   0.9926   1.0696   1.1493   1.3156

          k = 0.0000 0.0000-0.7200 ( 22892 PWs)   bands (ev):

   -23.1983 -23.1983  -9.0688  -9.0685  -8.6076  -8.6075  -8.5254  -8.5254
    -4.3353  -4.3349  -4.2785  -4.2779  -0.8265  -0.8259  -0.8128  -0.8112
     0.3542   0.3551   0.5114   0.5131   1.1329   1.1331   1.1392   1.1398

          k = 0.0000 0.2441 0.0000 ( 22902 PWs)   bands (ev):

   -23.2204 -23.2111  -8.8801  -8.7606  -8.6181  -8.5378  -8.4529  -8.3914
    -5.5169  -4.5836  -4.1858  -3.8592  -1.0640  -0.5816  -0.5729   0.2563
     0.2869   0.3331   0.6340   0.7694   0.8561   0.8733   1.1415   1.2140

          k = 0.0000 0.2441 0.3600 ( 22894 PWs)   bands (ev):

   -23.2103 -23.2037  -8.8571  -8.8083  -8.6936  -8.6765  -8.5292  -8.5188
    -5.0360  -4.4617  -4.1006  -4.0232  -0.8517  -0.8014  -0.6211   0.0250
     0.0823   0.3009   0.3048   0.8694   0.9298   1.0110   1.1030   1.1702

          k = 0.0000 0.2441-0.7200 ( 22910 PWs)   bands (ev):

   -23.1983 -23.1982  -9.0867  -9.0865  -8.5811  -8.5810  -8.5240  -8.5240
    -4.7090  -4.7089  -3.8876  -3.8876  -0.9721  -0.9714  -0.6006  -0.5997
     0.4564   0.4567   0.5397   0.5413   0.9193   0.9194   1.1393   1.1395

          k = 0.0000-0.4882 0.0000 ( 22844 PWs)   bands (ev):

   -23.2157 -23.2157  -8.7721  -8.7721  -8.6503  -8.6503  -8.4219  -8.4219
    -4.9255  -4.9255  -4.2106  -4.2106  -0.7124  -0.7124  -0.0544  -0.0544
     0.1877   0.1877   0.7876   0.7876   0.9056   0.9056   1.0460   1.0460

          k = 0.0000-0.4882 0.3600 ( 22876 PWs)   bands (ev):

   -23.2070 -23.2070  -8.8584  -8.8584  -8.6118  -8.6118  -8.5765  -8.5765
    -4.7472  -4.7472  -4.0918  -4.0918  -0.7927  -0.7927  -0.3512  -0.3512
     0.3681   0.3681   0.6678   0.6678   0.8495   0.8495   1.0738   1.0738

          k = 0.0000-0.4882-0.7200 ( 22924 PWs)   bands (ev):

   -23.1982 -23.1982  -9.1030  -9.1030  -8.5582  -8.5582  -8.5201  -8.5201
    -4.8724  -4.8724  -3.7070  -3.7070  -1.0765  -1.0765  -0.3044  -0.3044
     0.3637   0.3637   0.6054   0.6054   0.7056   0.7056   1.1785   1.1785

          k = 0.2504 0.0000 0.0000 ( 22899 PWs)   bands (ev):

   -23.2204 -23.2111  -8.8652  -8.7806  -8.5991  -8.5658  -8.4529  -8.3914
    -5.5253  -4.7077  -3.8926  -3.8898  -1.2788  -0.3282  -0.2822  -0.1718
     0.4150   0.4721   0.5231   0.6182   0.7028   0.7557   1.1982   1.2406

          k = 0.2504 0.0000 0.3600 ( 22880 PWs)   bands (ev):

   -23.2103 -23.2037  -8.8465  -8.8247  -8.7324  -8.6434  -8.5514  -8.5022
    -4.9777  -4.3346  -4.1365  -4.1035  -1.0356  -0.7579  -0.6314  -0.0113
    -0.0108   0.3121   0.5581   0.7017   0.8676   0.9977   1.2257   1.2531

          k = 0.2504 0.0000-0.7200 ( 22874 PWs)   bands (ev):

   -23.1982 -23.1982  -9.0937  -9.0935  -8.5874  -8.5873  -8.5211  -8.5210
    -4.4745  -4.4741  -4.0983  -4.0980  -1.3533  -1.3528  -0.2940  -0.2937
[...]
        18        H      tau(  18) = (   0.8585020   0.6536750   0.5042558  )
        19        H      tau(  19) = (   0.3647791   0.8882085   0.1544764  )
        20        H      tau(  20) = (   0.6227045   0.1397165   0.1544764  )
        21        H      tau(  21) = (   0.8585209   0.6536790   0.1953059  )
        22        H      tau(  22) = (   0.1289627   0.3742460   0.1953059  )

     number of k points=    27
                       cart. coord. in units 2pi/alat
        k(    1) = (   0.0000000   0.0000000   0.0000000), wk =   0.0312500
        k(    2) = (   0.0000000   0.0000000   0.3573652), wk =   0.0625000
        k(    3) = (   0.0000000   0.0000000  -0.7147303), wk =   0.0312500
        k(    4) = (   0.0000000   0.2432084   0.0000000), wk =   0.0625000
        k(    5) = (   0.0000000   0.2432084   0.3573652), wk =   0.1250000
        k(    6) = (   0.0000000   0.2432084  -0.7147303), wk =   0.0625000
        k(    7) = (   0.0000000  -0.4864168   0.0000000), wk =   0.0312500
        k(    8) = (   0.0000000  -0.4864168   0.3573652), wk =   0.0625000
        k(    9) = (   0.0000000  -0.4864168  -0.7147303), wk =   0.0312500
        k(   10) = (   0.2531688   0.0000000   0.0000000), wk =   0.0625000
        k(   11) = (   0.2531688   0.0000000   0.3573652), wk =   0.1250000
        k(   12) = (   0.2531688   0.0000000  -0.7147303), wk =   0.0625000
        k(   13) = (   0.2531688   0.2432084   0.0000000), wk =   0.1250000
        k(   14) = (   0.2531688   0.2432084   0.3573652), wk =   0.2500000
        k(   15) = (   0.2531688   0.2432084  -0.7147303), wk =   0.1250000
        k(   16) = (   0.2531688  -0.4864168   0.0000000), wk =   0.0625000
        k(   17) = (   0.2531688  -0.4864168   0.3573652), wk =   0.1250000
        k(   18) = (   0.2531688  -0.4864168  -0.7147303), wk =   0.0625000
        k(   19) = (  -0.5063375   0.0000000   0.0000000), wk =   0.0312500
        k(   20) = (  -0.5063375   0.0000000   0.3573652), wk =   0.0625000
        k(   21) = (  -0.5063375   0.0000000  -0.7147303), wk =   0.0312500
        k(   22) = (  -0.5063375   0.2432084   0.0000000), wk =   0.0625000
        k(   23) = (  -0.5063375   0.2432084   0.3573652), wk =   0.1250000
        k(   24) = (  -0.5063375   0.2432084  -0.7147303), wk =   0.0625000
        k(   25) = (  -0.5063375  -0.4864168   0.0000000), wk =   0.0312500
        k(   26) = (  -0.5063375  -0.4864168   0.3573652), wk =   0.0625000
        k(   27) = (  -0.5063375  -0.4864168  -0.7147303), wk =   0.0312500

     Dense  grid:   518039 G-vectors     FFT dimensions: ( 120, 120,  80)

     Smooth grid:   183115 G-vectors     FFT dimensions: (  80,  90,  60)

     Estimated max dynamical RAM per process >      88.58 MB

     Estimated total dynamical RAM >       2.08 GB

     Initial potential from superposition of free atoms

     starting charge      47.9682, renormalised to      48.0000
     Starting wfcs are   42 randomized atomic wfcs

     total cpu time spent up to now is     5932.2 secs

     Self-consistent Calculation

     iteration #  1     ecut=   100.00 Ry     beta= 0.70
     Davidson diagonalization with overlap
     ethr =  1.00E-06,  avg # of iterations = 11.2

     total cpu time spent up to now is     5970.9 secs

     total energy              =    -155.86629169 Ry
     estimated scf accuracy    <       2.16744116 Ry

     iteration #  2     ecut=   100.00 Ry     beta= 0.70
     Davidson diagonalization with overlap
     ethr =  4.52E-03,  avg # of iterations =  2.0

     total cpu time spent up to now is     5982.6 secs

     total energy              =    -156.40158299 Ry
     estimated scf accuracy    <       0.43737914 Ry

     iteration #  3     ecut=   100.00 Ry     beta= 0.70
     Davidson diagonalization with overlap
     ethr =  9.11E-04,  avg # of iterations =  2.0

     total cpu time spent up to now is     5994.4 secs

     total energy              =    -156.46974717 Ry
     estimated scf accuracy    <       0.00546414 Ry

     iteration #  4     ecut=   100.00 Ry     beta= 0.70
     Davidson diagonalization with overlap
     ethr =  1.14E-05,  avg # of iterations =  3.3

     total cpu time spent up to now is     6009.2 secs

     total energy              =    -156.47167380 Ry
     estimated scf accuracy    <       0.00204780 Ry

     iteration #  5     ecut=   100.00 Ry     beta= 0.70
     Davidson diagonalization with overlap
     ethr =  4.27E-06,  avg # of iterations =  3.8

     total cpu time spent up to now is     6022.0 secs

     total energy              =    -156.47228982 Ry
     estimated scf accuracy    <       0.00005015 Ry

     iteration #  6     ecut=   100.00 Ry     beta= 0.70
     Davidson diagonalization with overlap
     ethr =  1.04E-07,  avg # of iterations =  5.8

     total cpu time spent up to now is     6040.9 secs

     total energy              =    -156.47237103 Ry
     estimated scf accuracy    <       0.00001014 Ry

     iteration #  7     ecut=   100.00 Ry     beta= 0.70
     Davidson diagonalization with overlap
     ethr =  2.11E-08,  avg # of iterations =  3.9

     total cpu time spent up to now is     6054.1 secs

     total energy              =    -156.47237442 Ry
     estimated scf accuracy    <       0.00000010 Ry

     iteration #  8     ecut=   100.00 Ry     beta= 0.70
     Davidson diagonalization with overlap
     ethr =  2.17E-10,  avg # of iterations =  6.9

     total cpu time spent up to now is     6076.7 secs

     total energy              =    -156.47237466 Ry
     estimated scf accuracy    <       0.00000006 Ry

     iteration #  9     ecut=   100.00 Ry     beta= 0.70
     Davidson diagonalization with overlap
     ethr =  1.15E-10,  avg # of iterations =  2.1

     total cpu time spent up to now is     6088.5 secs

     total energy              =    -156.47237467 Ry
     estimated scf accuracy    <          1.4E-09 Ry

     iteration # 10     ecut=   100.00 Ry     beta= 0.70
     Davidson diagonalization with overlap
     ethr =  2.93E-12,  avg # of iterations =  5.9

     total cpu time spent up to now is     6107.7 secs

     total energy              =    -156.47237467 Ry
     estimated scf accuracy    <          3.2E-10 Ry

     iteration # 11     ecut=   100.00 Ry     beta= 0.70
     Davidson diagonalization with overlap
     ethr =  6.63E-13,  avg # of iterations =  3.4

     total cpu time spent up to now is     6120.6 secs

     total energy              =    -156.47237467 Ry
     estimated scf accuracy    <          6.6E-12 Ry

     iteration # 12     ecut=   100.00 Ry     beta= 0.70
     Davidson diagonalization with overlap
     ethr =  1.00E-13,  avg # of iterations =  4.0

     total cpu time spent up to now is     6134.2 secs

     total energy              =    -156.47237467 Ry
     estimated scf accuracy    <          1.4E-12 Ry

     iteration # 13     ecut=   100.00 Ry     beta= 0.70
     Davidson diagonalization with overlap
     ethr =  1.00E-13,  avg # of iterations =  1.0

     total cpu time spent up to now is     6143.3 secs

     End of self-consistent calculation

          k = 0.0000 0.0000 0.0000 ( 22865 PWs)   bands (ev):

   -23.2599 -23.2468  -8.9242  -8.7988  -8.5544  -8.5093  -8.4933  -8.4085
    -5.7466  -4.6866  -3.8353  -3.6562  -1.4647  -0.5025  -0.3635  -0.0360
     0.4225   0.4339   0.5204   0.6852   0.7251   1.2792   1.2802   1.3220

          k = 0.0000 0.0000 0.3574 ( 22894 PWs)   bands (ev):

   -23.2502 -23.2409  -8.8081  -8.7945  -8.7656  -8.7217  -8.5339  -8.5103
    -5.1734  -4.3931  -4.0410  -3.9359  -1.0555  -0.7114  -0.2393  -0.1881
    -0.1016   0.0609   0.4788   0.8188   1.0109   1.1246   1.2193   1.3708

          k = 0.0000 0.0000-0.7147 ( 22876 PWs)   bands (ev):

   -23.2377 -23.2377  -9.0490  -9.0490  -8.6291  -8.6291  -8.5458  -8.5458
    -4.3850  -4.3850  -4.2323  -4.2323  -0.8203  -0.8203  -0.7072  -0.7072
     0.3450   0.3451   0.5045   0.5046   1.1593   1.1594   1.2166   1.2167

          k = 0.0000 0.2432 0.0000 ( 22911 PWs)   bands (ev):

   -23.2580 -23.2487  -8.8884  -8.7596  -8.6325  -8.5548  -8.4805  -8.4205
    -5.5045  -4.5590  -4.2006  -3.8297  -1.0252  -0.5752  -0.5557   0.2680
     0.2781   0.3320   0.7268   0.8588   0.8886   0.8935   1.1780   1.2478

          k = 0.0000 0.2432 0.3574 ( 22908 PWs)   bands (ev):

   -23.2488 -23.2423  -8.8619  -8.8091  -8.7031  -8.6839  -8.5464  -8.5393
    -5.0566  -4.4825  -4.0842  -3.9837  -0.8428  -0.7409  -0.5535   0.0360
     0.1278   0.2799   0.3130   0.8935   0.9414   1.0749   1.1460   1.2182

          k = 0.0000 0.2432-0.7147 ( 22912 PWs)   bands (ev):

   -23.2377 -23.2377  -9.0681  -9.0681  -8.6021  -8.6021  -8.5440  -8.5440
    -4.7152  -4.7152  -3.8865  -3.8865  -0.8596  -0.8595  -0.5964  -0.5964
     0.4355   0.4357   0.5397   0.5397   0.9467   0.9468   1.2061   1.2062

          k = 0.0000-0.4864 0.0000 ( 22872 PWs)   bands (ev):

   -23.2533 -23.2533  -8.7814  -8.7814  -8.6594  -8.6594  -8.4502  -8.4502
    -4.9097  -4.9097  -4.2048  -4.2048  -0.6691  -0.6691  -0.0502  -0.0502
     0.1788   0.1788   0.8180   0.8180   0.9862   0.9862   1.0893   1.0893

          k = 0.0000-0.4864 0.3574 ( 22946 PWs)   bands (ev):

   -23.2455 -23.2455  -8.8610  -8.8610  -8.6215  -8.6215  -8.5942  -8.5942
    -4.7675  -4.7675  -4.0657  -4.0657  -0.7281  -0.7281  -0.3429  -0.3429
     0.4203   0.4203   0.6376   0.6376   0.9014   0.9014   1.1095   1.1095

          k = 0.0000-0.4864-0.7147 ( 22956 PWs)   bands (ev):

   -23.2377 -23.2377  -9.0853  -9.0853  -8.5795  -8.5795  -8.5396  -8.5396
    -4.8761  -4.8761  -3.7098  -3.7098  -0.9563  -0.9563  -0.2897  -0.2897
     0.3093   0.3093   0.6068   0.6068   0.7627   0.7627   1.2190   1.2190

          k = 0.2532 0.0000 0.0000 ( 22909 PWs)   bands (ev):

   -23.2579 -23.2487  -8.8737  -8.7827  -8.6128  -8.5851  -8.4805  -8.4205
    -5.5083  -4.6942  -3.8890  -3.8541  -1.2581  -0.3106  -0.2857  -0.1513
     0.4056   0.5120   0.5622   0.7187   0.7470   0.7683   1.2315   1.2682

          k = 0.2532 0.0000 0.3574 ( 22904 PWs)   bands (ev):

   -23.2488 -23.2422  -8.8486  -8.8296  -8.7427  -8.6519  -8.5694  -8.5234
    -4.9893  -4.3549  -4.0916  -4.0874  -1.0221  -0.7306  -0.5743  -0.0218
    -0.0137   0.3394   0.6040   0.7658   0.8879   1.0157   1.2849   1.3134

          k = 0.2532 0.0000-0.7147 ( 22906 PWs)   bands (ev):

   -23.2376 -23.2376  -9.0758  -9.0758  -8.6093  -8.6093  -8.5418  -8.5418
    -4.4429  -4.4429  -4.1291  -4.1290  -1.3132  -1.3132  -0.2533  -0.2532
     0.3423   0.3424   0.7921   0.7921   0.9738   0.9740   1.2140   1.2141

          k = 0.2532 0.2432 0.0000 ( 22893 PWs)   bands (ev):

   -23.2566 -23.2500  -8.9118  -8.7573  -8.6851  -8.5153  -8.4712  -8.4288
    -5.3416  -4.6195  -4.2126  -3.9037  -0.9019  -0.5301  -0.3145   0.1653
     0.2163   0.2684   0.6865   0.8490   0.8914   0.9423   0.9517   1.1671

          k = 0.2532 0.2432 0.3574 ( 22886 PWs)   bands (ev):

   -23.2478 -23.2432  -8.8544  -8.7989  -8.7966  -8.6224  -8.5879  -8.5132
    -4.8906  -4.4071  -4.1849  -4.0815  -0.9760  -0.6932  -0.5692   0.0292
     0.1862   0.3929   0.4844   0.7318   0.8981   0.9956   1.1757   1.2737

          k = 0.2532 0.2432-0.7147 ( 22898 PWs)   bands (ev):

   -23.2376 -23.2376  -9.0845  -9.0515  -8.6430  -8.5824  -8.5539  -8.5413
    -4.7127  -4.4964  -4.0617  -3.8396  -1.2618  -1.1952  -0.2911  -0.1946
     0.2676   0.2935   0.7367   0.8017   0.9749   1.0086   1.1336   1.2034

          k = 0.2532-0.4864 0.0000 ( 22860 PWs)   bands (ev):

   -23.2533 -23.2533  -8.8823  -8.8823  -8.5603  -8.5603  -8.4495  -8.4495
    -4.9096  -4.9096  -4.1866  -4.1866  -0.5504  -0.5504  -0.0441  -0.0441
     0.1322   0.1322   0.7135   0.7135   0.9998   0.9998   1.0307   1.0307

          k = 0.2532-0.4864 0.3574 ( 22904 PWs)   bands (ev):

   -23.2454 -23.2454  -8.8481  -8.8481  -8.7119  -8.7119  -8.5304  -8.5304
    -4.6471  -4.6471  -4.1543  -4.1543  -0.8621  -0.8621  -0.1815  -0.1815
     0.3451   0.3451   0.6889   0.6889   0.8646   0.8646   1.1484   1.1484

          k = 0.2532-0.4864-0.7147 ( 22908 PWs)   bands (ev):

   -23.2376 -23.2376  -9.0620  -9.0620  -8.6174  -8.6174  -8.5504  -8.5504
    -4.7311  -4.7311  -3.8069  -3.8069  -1.1311  -1.1311  -0.2982  -0.2982
     0.4153   0.4153   0.5648   0.5648   1.0042   1.0042   1.1646   1.1646

          k =-0.5063 0.0000 0.0000 ( 22862 PWs)   bands (ev):

   -23.2533 -23.2533  -8.7487  -8.7487  -8.7105  -8.7105  -8.4501  -8.4501
    -4.9967  -4.9967  -3.9811  -3.9811  -0.7864  -0.7864   0.0803   0.0803
     0.4438   0.4438   0.5545   0.5545   0.6497   0.6497   1.1119   1.1119

          k =-0.5063 0.0000 0.3574 ( 22914 PWs)   bands (ev):

   -23.2454 -23.2454  -8.8697  -8.8697  -8.6577  -8.6577  -8.5709  -8.5709
    -4.5684  -4.5684  -4.1837  -4.1837  -0.9441  -0.9441  -0.2983  -0.2983
     0.3410   0.3410   0.5798   0.5798   1.0093   1.0093   1.2705   1.2705

          k =-0.5063 0.0000-0.7147 ( 22888 PWs)   bands (ev):

   -23.2376 -23.2376  -9.1003  -9.1003  -8.5927  -8.5927  -8.5369  -8.5369
    -4.4832  -4.4832  -4.0382  -4.0382  -1.5616  -1.5616   0.1002   0.1002
     0.3398   0.3398   0.5894   0.5894   1.1736   1.1736   1.1818   1.1818

          k =-0.5063 0.2432 0.0000 ( 22892 PWs)   bands (ev):

   -23.2532 -23.2532  -8.8814  -8.8814  -8.5703  -8.5703  -8.4494  -8.4494
    -4.9588  -4.9588  -4.0694  -4.0694  -0.6327  -0.6327   0.1131   0.1131
     0.2106   0.2106   0.4589   0.4589   0.9162   0.9162   1.0685   1.0685

          k =-0.5063 0.2432 0.3574 ( 22878 PWs)   bands (ev):

   -23.2454 -23.2454  -8.8542  -8.8542  -8.7169  -8.7169  -8.5300  -8.5300
    -4.5172  -4.5172  -4.2430  -4.2430  -0.9446  -0.9446  -0.2214  -0.2214
     0.3415   0.3415   0.6543   0.6543   0.9706   0.9706   1.1803   1.1803

          k =-0.5063 0.2432-0.7147 ( 22876 PWs)   bands (ev):

   -23.2376 -23.2376  -9.0704  -9.0704  -8.6209  -8.6209  -8.5510  -8.5510
    -4.5151  -4.5151  -3.9904  -3.9904  -1.4346  -1.4346  -0.1157  -0.1157
     0.3754   0.3754   0.6830   0.6830   1.0877   1.0877   1.2127   1.2127

          k =-0.5063-0.4864 0.0000 ( 22900 PWs)   bands (ev):

   -23.2532 -23.2532  -8.9415  -8.9415  -8.5027  -8.5027  -8.4488  -8.4488
    -4.9139  -4.9139  -4.1622  -4.1622  -0.4003  -0.4003  -0.0722  -0.0722
     0.0899   0.0899   0.6814   0.6814   0.8373   0.8373   1.0709   1.0709

          k =-0.5063-0.4864 0.3574 ( 22848 PWs)   bands (ev):

   -23.2454 -23.2454  -8.8282  -8.8282  -8.7690  -8.7690  -8.5068  -8.5068
    -4.4231  -4.4231  -4.3447  -4.3447  -0.9258  -0.9258  -0.2456  -0.2456
     0.5967   0.5967   0.6405   0.6405   0.9126   0.9126   1.0220   1.0220

          k =-0.5063-0.4864-0.7147 ( 22896 PWs)   bands (ev):

   -23.2375 -23.2375  -9.0349  -9.0349  -8.6585  -8.6585  -8.5611  -8.5611
    -4.5432  -4.5432  -3.9460  -3.9460  -1.2466  -1.2466  -0.4486  -0.4486
     0.6609   0.6609   0.7414   0.7414   0.9339   0.9339   1.1450   1.1450

     highest occupied level (ev):     1.3708

!    total energy              =    -156.47237467 Ry
     estimated scf accuracy    <          1.2E-14 Ry

     The total energy is the sum of the following terms:
     one-electron contribution =     -16.52700751 Ry
     hartree contribution      =      23.58538297 Ry
     xc contribution           =     -49.24457205 Ry
     ewald contribution        =    -114.28617808 Ry

     convergence has been achieved in  13 iterations

     Forces acting on atoms (cartesian axes, Ry/au):

     atom    1 type  2   force =     0.00000000    0.00000000   -0.00000491
     atom    2 type  2   force =     0.00000000    0.00000000    0.00000491
     atom    3 type  1   force =     0.00000089   -0.00000045    0.00000492
     atom    4 type  1   force =    -0.00000089    0.00000045    0.00000492
     atom    5 type  1   force =     0.00000089    0.00000045   -0.00000492
     atom    6 type  1   force =    -0.00000089   -0.00000045   -0.00000492
     atom    7 type  3   force =    -0.00000080   -0.00000014   -0.00000200
     atom    8 type  3   force =     0.00000080    0.00000014   -0.00000200
     atom    9 type  3   force =    -0.00000080    0.00000014    0.00000200
     atom   10 type  3   force =     0.00000080   -0.00000014    0.00000200
     atom   11 type  3   force =     0.00000160    0.00000083   -0.00000779
     atom   12 type  3   force =    -0.00000160   -0.00000083   -0.00000779
     atom   13 type  3   force =     0.00000160   -0.00000083    0.00000779
     atom   14 type  3   force =    -0.00000160    0.00000083    0.00000779
     atom   15 type  3   force =    -0.00000334    0.00000558    0.00000225
     atom   16 type  3   force =     0.00000334   -0.00000558    0.00000225
     atom   17 type  3   force =    -0.00000334   -0.00000558   -0.00000225
     atom   18 type  3   force =     0.00000334    0.00000558   -0.00000225
     atom   19 type  3   force =    -0.00000210    0.00000581    0.00000306
     atom   20 type  3   force =     0.00000210   -0.00000581    0.00000306
     atom   21 type  3   force =    -0.00000210   -0.00000581   -0.00000306
     atom   22 type  3   force =     0.00000210    0.00000581   -0.00000306

     Total force =     0.000028     Total SCF correction =     0.000000


     Computing stress (Cartesian axis) and pressure

          total   stress  (Ry/bohr**3)                   (kbar)     P=       10.96
   0.00007447   0.00000000   0.00000000           10.95        0.00        0.00
   0.00000000   0.00007448   0.00000000            0.00       10.96        0.00
   0.00000000   0.00000000   0.00007449            0.00        0.00       10.96


     Writing all to output data dir ./pwscf.save/ :
     XML data file, charge density, pseudopotentials, collected wavefunctions

     init_run     :     14.41s CPU     17.19s WALL (       2 calls)
     electrons    :   5428.38s CPU   5487.10s WALL (      55 calls)
     update_pot   :      8.89s CPU      9.99s WALL (      53 calls)
     forces       :    182.17s CPU    184.46s WALL (      55 calls)
     stress       :    442.83s CPU    444.66s WALL (      55 calls)

     Called by init_run:
     wfcinit      :     12.24s CPU     12.35s WALL (       2 calls)
     potinit      :      0.55s CPU      1.59s WALL (       2 calls)
     hinit0       :      0.78s CPU      2.23s WALL (       2 calls)

     Called by electrons:
     c_bands      :   4684.44s CPU   4727.27s WALL (     408 calls)
     sum_band     :    655.60s CPU    665.19s WALL (     408 calls)
     v_of_rho     :     42.02s CPU     44.81s WALL (     420 calls)
     newd         :     45.82s CPU     47.11s WALL (     420 calls)
     mix_rho      :      5.44s CPU      5.97s WALL (     408 calls)

     Called by c_bands:
     init_us_2    :    109.20s CPU    111.03s WALL (   25056 calls)
     cegterg      :   4513.05s CPU   4553.94s WALL (   11016 calls)

     Called by *egterg:
     cdiaghg      :     69.85s CPU     70.43s WALL (   43995 calls)
     h_psi        :   3101.38s CPU   3136.01s WALL (   46641 calls)
     s_psi        :    746.30s CPU    748.59s WALL (   46641 calls)
     g_psi        :      9.30s CPU      9.40s WALL (   35571 calls)

     Called by h_psi:
     h_psi:calbec :    781.02s CPU    784.24s WALL (   46641 calls)
     vloc_psi     :   1564.01s CPU   1593.65s WALL (   46641 calls)
     add_vuspsi   :    746.90s CPU    749.07s WALL (   46641 calls)

     General routines
     calbec       :   1249.26s CPU   1254.20s WALL (   65082 calls)
     fft          :     30.92s CPU     36.84s WALL (    6821 calls)
     ffts         :      1.93s CPU      3.16s WALL (     828 calls)
     fftw         :   1440.06s CPU   1464.60s WALL ( 1902796 calls)
     interpolate  :      3.40s CPU      4.75s WALL (     420 calls)

     Parallel routines

     PWSCF        :      1h41m CPU      1h42m WALL


   This run was terminated on:  15:56:43  12Jul2024            

=------------------------------------------------------------------------------=
   JOB DONE.
=------------------------------------------------------------------------------=
