
     Program PHONON v.7.3.1 starts on 12Jul2024 at 12:21:18 

     This program is part of the open-source Quantum ESPRESSO suite
     for quantum simulation of materials; please cite
         "P. Giannozzi et al., J. Phys.:Condens. Matter 21 395502 (2009);
         "P. Giannozzi et al., J. Phys.:Condens. Matter 29 465901 (2017);
         "P. Giannozzi et al., J. Chem. Phys. 152 154105 (2020);
          URL http://www.quantum-espresso.org", 
     in publications or presentations arising from this work. More details at
     http://www.quantum-espresso.org/quote

     Parallel version (MPI), running on    24 processors

     MPI processes distributed on     1 nodes
     82408 MiB available memory on the printing compute node when the environment starts

     Waiting for input...
     Reading input from standard input

     Reading xml data from directory:

     ./pwscf.save/

     R & G space division:  proc/nbgrp/npool/nimage =      24
     Subspace diagonalization in iterative solution of the eigenvalue problem:
     a serial algorithm will be used


     IMPORTANT: XC functional enforced from input :
     Exchange-correlation= PBESOL
                           (   1   4  10   8   0   0   0)
     Any further DFT definition will be discarded
     Please, verify this is what you really want


     Parallelization info
     --------------------
     sticks:   dense  smooth     PW     G-vecs:    dense   smooth      PW
     Min         443     221     60                23289     8231    1156
     Max         444     222     61                23292     8234    1158
     Sum       10639    5319   1441               558953   197593   27777

     Using Slab Decomposition

     Reading collected, re-writing distributed wavefunctions in ./


     Dynamical matrices for ( 3, 3, 3)  uniform grid of q-points
     (   8 q-points):
       N         xq(1)         xq(2)         xq(3) 
       1   0.000000000   0.000000000   0.000000000
       2   0.000000000   0.000000000   0.487985361
       3   0.000000000   0.327455185   0.000000000
       4   0.000000000   0.327455185   0.487985361
       5   0.333333333   0.000000000   0.000000000
       6   0.333333333   0.000000000   0.487985361
       7   0.333333333   0.327455185   0.000000000
       8   0.333333333   0.327455185   0.487985361

     Number and degeneracy of irreps per q-point
       N         xq(1)         xq(2)         xq(3)   N irreps
       1   0.000000000   0.000000000   0.000000000      66
     No degeneracy
       2   0.000000000   0.000000000   0.487985361      66
     No degeneracy
       3   0.000000000   0.327455185   0.000000000      66
     No degeneracy
       4   0.000000000   0.327455185   0.487985361      66
     No degeneracy
       5   0.333333333   0.000000000   0.000000000      66
     No degeneracy
       6   0.333333333   0.000000000   0.487985361      66
     No degeneracy
       7   0.333333333   0.327455185   0.000000000      66
     No degeneracy
       8   0.333333333   0.327455185   0.487985361      66
     No degeneracy

     Saving dvscf to file. Distribute only q points, not irreducible representations.

     Calculation of q =    0.0000000   0.0000000   0.0000000

                                                                                

     bravais-lattice index     =            8
     lattice parameter (alat)  =      12.8129  a.u.
     unit-cell volume          =    1462.6445 (a.u.)^3
     number of atoms/cell      =           22
     number of atomic types    =            3
     kinetic-energy cut-off    =     100.0000  Ry
     charge density cut-off    =     800.0000  Ry
     convergence threshold     =      1.0E-14
     beta                      =       0.7000
     number of iterations used =            4
     Exchange-correlation= PBESOL
                           (   1   4  10   8   0   0   0)


     celldm(1)=   12.81288  celldm(2)=    1.01795  celldm(3)=    0.68308
     celldm(4)=    0.00000  celldm(5)=    0.00000  celldm(6)=    0.00000

     crystal axes: (cart. coord. in units of alat)
               a(1) = (  1.0000  0.0000  0.0000 )  
               a(2) = (  0.0000  1.0180  0.0000 )  
               a(3) = (  0.0000  0.0000  0.6831 )  

     reciprocal axes: (cart. coord. in units 2 pi/alat)
               b(1) = (  1.0000  0.0000  0.0000 )  
               b(2) = (  0.0000  0.9824  0.0000 )  
               b(3) = (  0.0000  0.0000  1.4640 )  


     Atoms inside the unit cell: 

     Cartesian axes

     site n.  atom      mass           positions (alat units)
        1  Ba    137.3270   tau(    1) = (    0.50000    0.50898    0.34155  )
        2  Ba    137.3270   tau(    2) = (    0.00000    0.00000    0.68307  )
        3  B      10.8110   tau(    3) = (    0.61420    0.24656   -0.00000  )
        4  B      10.8110   tau(    4) = (    0.38580    0.77139   -0.00000  )
        5  B      10.8110   tau(    5) = (    0.11420    0.26242    0.34154  )
        6  B      10.8110   tau(    6) = (    0.88580    0.75553    0.34154  )
        7  H       1.0079   tau(    7) = (    0.43940    0.29608   -0.00001  )
        8  H       1.0079   tau(    8) = (    0.56060    0.72187   -0.00001  )
        9  H       1.0079   tau(    9) = (    0.93940    0.21290    0.34155  )
       10  H       1.0079   tau(   10) = (    0.06060    0.80505    0.34155  )
       11  H       1.0079   tau(   11) = (    0.72088    0.39486    0.00001  )
       12  H       1.0079   tau(   12) = (    0.27912    0.62309    0.00001  )
       13  H       1.0079   tau(   13) = (    0.22088    0.11412    0.34153  )
       14  H       1.0079   tau(   14) = (    0.77912    0.90383    0.34153  )
       15  H       1.0079   tau(   15) = (    0.64503    0.14910    0.53328  )
       16  H       1.0079   tau(   16) = (    0.35497    0.86885    0.53328  )
       17  H       1.0079   tau(   17) = (    0.14503    0.35988    0.49134  )
       18  H       1.0079   tau(   18) = (    0.85497    0.65807    0.49134  )
       19  H       1.0079   tau(   19) = (    0.35499    0.86884    0.14980  )
       20  H       1.0079   tau(   20) = (    0.64501    0.14911    0.14980  )
       21  H       1.0079   tau(   21) = (    0.85499    0.65809    0.19174  )
       22  H       1.0079   tau(   22) = (    0.14501    0.35986    0.19174  )

     Computing dynamical matrix for 
                    q = (   0.0000000   0.0000000   0.0000000 )

      5 Sym.Ops. (with q -> -q+G )


     G cutoff = 3326.7760  (  23291 G-vectors)     FFT grid: (120,120, 80)
     G cutoff = 1663.3880  (   8233 G-vectors)  smooth grid: ( 90, 90, 60)
     number of k points=    27

     PseudoPot. # 1 for B  read from file:
     /home/mehlhorn/pseudos/b_pbesol_v1.4.uspp.F.UPF
     MD5 check sum: 369b69bef2c3aeed4453bd8b804fd6a8
     Pseudo is Ultrasoft + core correction, Zval =  3.0
     Generated by new atomic code, or converted to UPF format
     Using radial grid of  781 points,  4 beta functions with: 
                l(1) =   0
                l(2) =   0
                l(3) =   1
                l(4) =   1
     Q(r) pseudized with  8 coefficients,  rinner =    1.100   1.100   1.100


     PseudoPot. # 2 for Ba read from file:
     /home/mehlhorn/pseudos/Ba.nc.z_10.oncvpsp4.dojo.v4-sp.upf
     MD5 check sum: c10ed334bb677c0554edec7181ce9143
     Pseudo is Norm-conserving + core correction, Zval = 10.0
     Generated using ONCVPSP code by D. R. Hamann
     Using radial grid of 1938 points,  8 beta functions with: 
                l(1) =   0
                l(2) =   0
                l(3) =   1
                l(4) =   1
                l(5) =   2
                l(6) =   2
                l(7) =   3
                l(8) =   3

     PseudoPot. # 3 for H  read from file:
     /home/mehlhorn/pseudos/H_ONCV_PBEsol-1.0.upf
     MD5 check sum: 398ef8f67c0a7342c05c87c5e19ea467
     Pseudo is Norm-conserving, Zval =  1.0
     Generated using ONCVPSP code by D. R. Hamann
     Using radial grid of 1180 points,  2 beta functions with: 
                l(1) =   0
                l(2) =   0

     Mode symmetry, D_2  (222)  point group:


     Electric field:
     Dielectric constant
     Born effective charges in two ways 


     Atomic displacements:
     There are   66 irreducible representations

     Representation     1      1 modes -  To be done

     Representation     2      1 modes -  To be done

     Representation     3      1 modes -  To be done

     Representation     4      1 modes -  To be done

     Representation     5      1 modes -  To be done

     Representation     6      1 modes -  To be done

     Representation     7      1 modes -  To be done

     Representation     8      1 modes -  To be done

     Representation     9      1 modes -  To be done

     Representation    10      1 modes -  To be done

     Representation    11      1 modes -  To be done

     Representation    12      1 modes -  To be done

     Representation    13      1 modes -  To be done

     Representation    14      1 modes -  To be done

     Representation    15      1 modes -  To be done

     Representation    16      1 modes -  To be done

     Representation    17      1 modes -  To be done

     Representation    18      1 modes -  To be done

     Representation    19      1 modes -  To be done

     Representation    20      1 modes -  To be done

     Representation    21      1 modes -  To be done

     Representation    22      1 modes -  To be done

     Representation    23      1 modes -  To be done

     Representation    24      1 modes -  To be done

     Representation    25      1 modes -  To be done

     Representation    26      1 modes -  To be done

     Representation    27      1 modes -  To be done

     Representation    28      1 modes -  To be done

     Representation    29      1 modes -  To be done

     Representation    30      1 modes -  To be done

     Representation    31      1 modes -  To be done

     Representation    32      1 modes -  To be done

     Representation    33      1 modes -  To be done

     Representation    34      1 modes -  To be done

     Representation    35      1 modes -  To be done

     Representation    36      1 modes -  To be done

     Representation    37      1 modes -  To be done

     Representation    38      1 modes -  To be done

     Representation    39      1 modes -  To be done

     Representation    40      1 modes -  To be done

     Representation    41      1 modes -  To be done

     Representation    42      1 modes -  To be done

     Representation    43      1 modes -  To be done

     Representation    44      1 modes -  To be done

     Representation    45      1 modes -  To be done

     Representation    46      1 modes -  To be done

     Representation    47      1 modes -  To be done

     Representation    48      1 modes -  To be done

     Representation    49      1 modes -  To be done

     Representation    50      1 modes -  To be done

     Representation    51      1 modes -  To be done

     Representation    52      1 modes -  To be done

     Representation    53      1 modes -  To be done

     Representation    54      1 modes -  To be done

     Representation    55      1 modes -  To be done

     Representation    56      1 modes -  To be done

     Representation    57      1 modes -  To be done

     Representation    58      1 modes -  To be done

     Representation    59      1 modes -  To be done

     Representation    60      1 modes -  To be done

     Representation    61      1 modes -  To be done

     Representation    62      1 modes -  To be done

     Representation    63      1 modes -  To be done

     Representation    64      1 modes -  To be done

     Representation    65      1 modes -  To be done

     Representation    66      1 modes -  To be done



     Alpha used in Ewald sum =   2.8000
     PHONON       :   3m29.36s CPU   3m33.56s WALL


     Electric Fields Calculation

      iter #   1 total cpu time :   833.5 secs   av.it.:   7.6
      thresh= 1.000E-02 alpha_mix =  0.700 |ddv_scf|^2 =  6.019E-09

      iter #   2 total cpu time :  1102.1 secs   av.it.:  17.0
      thresh= 7.758E-06 alpha_mix =  0.700 |ddv_scf|^2 =  9.988E-10

      iter #   3 total cpu time :  1360.2 secs   av.it.:  16.0
      thresh= 3.160E-06 alpha_mix =  0.700 |ddv_scf|^2 =  7.212E-11

      iter #   4 total cpu time :  1616.2 secs   av.it.:  15.7
      thresh= 8.492E-07 alpha_mix =  0.700 |ddv_scf|^2 =  1.080E-11

      iter #   5 total cpu time :  1873.3 secs   av.it.:  15.6
      thresh= 3.287E-07 alpha_mix =  0.700 |ddv_scf|^2 =  9.929E-13

      iter #   6 total cpu time :  2127.5 secs   av.it.:  15.7
      thresh= 9.964E-08 alpha_mix =  0.700 |ddv_scf|^2 =  2.366E-14

      iter #   7 total cpu time :  2388.5 secs   av.it.:  16.0
      thresh= 1.538E-08 alpha_mix =  0.700 |ddv_scf|^2 =  3.238E-15

     End of electric fields calculation

          Dielectric constant in cartesian axis 

          (       3.057153940       0.000000000       0.000000000 )
          (       0.000000000       3.112661034       0.000000000 )
          (       0.000000000       0.000000000       3.262418690 )

          Effective charges (d Force / dE) in cartesian axis without acoustic sum rule applied (asr)

           atom    1  Ba    Mean Z*:        2.64248
      Ex  (        2.47245       -0.05360        0.00000 )
      Ey  (        0.28244        2.49353        0.00000 )
      Ez  (        0.00000        0.00000        2.96146 )
           atom    2  Ba    Mean Z*:        2.64248
      Ex  (        2.47245        0.05360        0.00000 )
      Ey  (       -0.28244        2.49353        0.00000 )
      Ez  (        0.00000        0.00000        2.96146 )
           atom    3  B     Mean Z*:       -0.12425
      Ex  (       -0.14326        0.02941       -0.00002 )
      Ey  (        0.17399       -0.03107        0.00006 )
      Ez  (        0.00003        0.00003       -0.19842 )
           atom    4  B     Mean Z*:       -0.12425
      Ex  (       -0.14326        0.02941        0.00002 )
      Ey  (        0.17399       -0.03107       -0.00006 )
      Ez  (       -0.00003       -0.00003       -0.19842 )
           atom    5  B     Mean Z*:       -0.12425
      Ex  (       -0.14326       -0.02941        0.00002 )
      Ey  (       -0.17399       -0.03107        0.00006 )
      Ez  (       -0.00003        0.00003       -0.19842 )
           atom    6  B     Mean Z*:       -0.12425
      Ex  (       -0.14326       -0.02941       -0.00002 )
      Ey  (       -0.17399       -0.03107       -0.00006 )
      Ez  (        0.00003       -0.00003       -0.19842 )
           atom    7  H     Mean Z*:       -0.30991
      Ex  (       -0.43459        0.13924       -0.00001 )
      Ey  (        0.14491       -0.24572        0.00003 )
      Ez  (       -0.00003        0.00003       -0.24941 )
           atom    8  H     Mean Z*:       -0.30991
      Ex  (       -0.43459        0.13924        0.00001 )
      Ey  (        0.14491       -0.24572       -0.00003 )
      Ez  (        0.00003       -0.00003       -0.24941 )
           atom    9  H     Mean Z*:       -0.30991
      Ex  (       -0.43459       -0.13924        0.00001 )
      Ey  (       -0.14491       -0.24572        0.00003 )
      Ez  (        0.00003        0.00003       -0.24941 )
           atom   10  H     Mean Z*:       -0.30991
      Ex  (       -0.43459       -0.13924       -0.00001 )
      Ey  (       -0.14491       -0.24572       -0.00003 )
      Ez  (       -0.00003       -0.00003       -0.24941 )
           atom   11  H     Mean Z*:       -0.31086
      Ex  (       -0.25479       -0.03478        0.00000 )
      Ey  (       -0.11097       -0.43308       -0.00004 )
      Ez  (        0.00000       -0.00002       -0.24470 )
           atom   12  H     Mean Z*:       -0.31086
      Ex  (       -0.25479       -0.03478       -0.00000 )
      Ey  (       -0.11097       -0.43308        0.00004 )
      Ez  (       -0.00000        0.00002       -0.24470 )
           atom   13  H     Mean Z*:       -0.31086
      Ex  (       -0.25479        0.03478       -0.00000 )
      Ey  (        0.11097       -0.43308       -0.00004 )
      Ez  (       -0.00000       -0.00002       -0.24470 )
           atom   14  H     Mean Z*:       -0.31086
      Ex  (       -0.25479        0.03478        0.00000 )
      Ey  (        0.11097       -0.43308        0.00004 )
      Ez  (        0.00000        0.00002       -0.24470 )
           atom   15  H     Mean Z*:       -0.28787
      Ex  (       -0.20195        0.14932        0.06402 )
      Ey  (        0.10174       -0.26782       -0.09746 )
      Ez  (        0.02505       -0.11355       -0.39385 )
           atom   16  H     Mean Z*:       -0.28787
      Ex  (       -0.20195        0.14932       -0.06402 )
      Ey  (        0.10174       -0.26782        0.09746 )
      Ez  (       -0.02505        0.11355       -0.39385 )
           atom   17  H     Mean Z*:       -0.28787
      Ex  (       -0.20195       -0.14932       -0.06402 )
      Ey  (       -0.10174       -0.26782       -0.09746 )
      Ez  (       -0.02505       -0.11355       -0.39385 )
           atom   18  H     Mean Z*:       -0.28787
      Ex  (       -0.20195       -0.14932        0.06402 )
      Ey  (       -0.10174       -0.26782        0.09746 )
      Ez  (        0.02505        0.11355       -0.39385 )
           atom   19  H     Mean Z*:       -0.28789
      Ex  (       -0.20191        0.14929        0.06399 )
      Ey  (        0.10171       -0.26782       -0.09748 )
      Ez  (        0.02503       -0.11355       -0.39394 )
           atom   20  H     Mean Z*:       -0.28789
      Ex  (       -0.20191        0.14929       -0.06399 )
      Ey  (        0.10171       -0.26782        0.09748 )
      Ez  (       -0.02503        0.11355       -0.39394 )
           atom   21  H     Mean Z*:       -0.28789
      Ex  (       -0.20191       -0.14929       -0.06399 )
      Ey  (       -0.10171       -0.26782       -0.09748 )
      Ez  (       -0.02503       -0.11355       -0.39394 )
           atom   22  H     Mean Z*:       -0.28789
      Ex  (       -0.20191       -0.14929        0.06399 )
      Ey  (       -0.10171       -0.26782        0.09748 )
      Ez  (        0.02503        0.11355       -0.39394 )

          Effective charges Sum: Mean:        0.00187
             -0.00106        0.00000       -0.00000
              0.00000        0.00505       -0.00000
              0.00000        0.00000        0.00163

          Effective charges (d Force / dE) in cartesian axis with asr applied: 
           atom    1  Ba    Mean Z*:        2.64240
      E*x (        2.47250       -0.05360       -0.00000 )
      E*y (        0.28244        2.49330        0.00000 )
      E*z (        0.00000        0.00000        2.96139 )
           atom    2  Ba    Mean Z*:        2.64240
      E*x (        2.47250        0.05360       -0.00000 )
      E*y (       -0.28244        2.49330        0.00000 )
      E*z (        0.00000        0.00000        2.96139 )
           atom    3  B     Mean Z*:       -0.12433
      E*x (       -0.14321        0.02941       -0.00002 )
      E*y (        0.17399       -0.03130        0.00006 )
      E*z (        0.00003        0.00003       -0.19849 )
           atom    4  B     Mean Z*:       -0.12433
      E*x (       -0.14321        0.02941        0.00002 )
      E*y (        0.17399       -0.03130       -0.00006 )
      E*z (       -0.00003       -0.00003       -0.19849 )
           atom    5  B     Mean Z*:       -0.12433
      E*x (       -0.14321       -0.02941        0.00002 )
      E*y (       -0.17399       -0.03130        0.00006 )
      E*z (       -0.00003        0.00003       -0.19849 )
           atom    6  B     Mean Z*:       -0.12433
      E*x (       -0.14321       -0.02941       -0.00002 )
      E*y (       -0.17399       -0.03130       -0.00006 )
      E*z (        0.00003       -0.00003       -0.19849 )
           atom    7  H     Mean Z*:       -0.30999
      E*x (       -0.43454        0.13924       -0.00001 )
      E*y (        0.14491       -0.24595        0.00003 )
      E*z (       -0.00003        0.00003       -0.24949 )
           atom    8  H     Mean Z*:       -0.30999
      E*x (       -0.43454        0.13924        0.00001 )
      E*y (        0.14491       -0.24595       -0.00003 )
      E*z (        0.00003       -0.00003       -0.24949 )
           atom    9  H     Mean Z*:       -0.30999
      E*x (       -0.43454       -0.13924        0.00001 )
      E*y (       -0.14491       -0.24595        0.00003 )
      E*z (        0.00003        0.00003       -0.24949 )
           atom   10  H     Mean Z*:       -0.30999
      E*x (       -0.43454       -0.13924       -0.00001 )
      E*y (       -0.14491       -0.24595       -0.00003 )
      E*z (       -0.00003       -0.00003       -0.24949 )
           atom   11  H     Mean Z*:       -0.31094
      E*x (       -0.25474       -0.03478        0.00000 )
      E*y (       -0.11097       -0.43331       -0.00004 )
      E*z (        0.00000       -0.00002       -0.24477 )
           atom   12  H     Mean Z*:       -0.31094
      E*x (       -0.25474       -0.03478       -0.00000 )
      E*y (       -0.11097       -0.43331        0.00004 )
      E*z (       -0.00000        0.00002       -0.24477 )
           atom   13  H     Mean Z*:       -0.31094
      E*x (       -0.25474        0.03478       -0.00000 )
      E*y (        0.11097       -0.43331       -0.00004 )
      E*z (       -0.00000       -0.00002       -0.24477 )
           atom   14  H     Mean Z*:       -0.31094
      E*x (       -0.25474        0.03478        0.00000 )
      E*y (        0.11097       -0.43331        0.00004 )
      E*z (        0.00000        0.00002       -0.24477 )
           atom   15  H     Mean Z*:       -0.28796
      E*x (       -0.20190        0.14932        0.06402 )
      E*y (        0.10174       -0.26805       -0.09746 )
      E*z (        0.02505       -0.11355       -0.39393 )
           atom   16  H     Mean Z*:       -0.28796
      E*x (       -0.20190        0.14932       -0.06402 )
      E*y (        0.10174       -0.26805        0.09746 )
      E*z (       -0.02505        0.11355       -0.39393 )
           atom   17  H     Mean Z*:       -0.28796
      E*x (       -0.20190       -0.14932       -0.06402 )
      E*y (       -0.10174       -0.26805       -0.09746 )
      E*z (       -0.02505       -0.11355       -0.39393 )
           atom   18  H     Mean Z*:       -0.28796
      E*x (       -0.20190       -0.14932        0.06402 )
      E*y (       -0.10174       -0.26805        0.09746 )
      E*z (        0.02505        0.11355       -0.39393 )
           atom   19  H     Mean Z*:       -0.28797
      E*x (       -0.20186        0.14929        0.06399 )
      E*y (        0.10171       -0.26804       -0.09748 )
      E*z (        0.02503       -0.11355       -0.39402 )
           atom   20  H     Mean Z*:       -0.28797
      E*x (       -0.20186        0.14929       -0.06399 )
      E*y (        0.10171       -0.26804        0.09748 )
      E*z (       -0.02503        0.11355       -0.39402 )
           atom   21  H     Mean Z*:       -0.28797
      E*x (       -0.20186       -0.14929       -0.06399 )
      E*y (       -0.10171       -0.26804       -0.09748 )
      E*z (       -0.02503       -0.11355       -0.39402 )
           atom   22  H     Mean Z*:       -0.28797
      E*x (       -0.20186       -0.14929        0.06399 )
      E*y (       -0.10171       -0.26804        0.09748 )
      E*z (        0.02503        0.11355       -0.39402 )


     Representation #   1 mode #   1

     Self-consistent Calculation

      iter #   1 total cpu time :  4923.4 secs   av.it.:   3.0
      thresh= 1.000E-02 alpha_mix =  0.700 |ddv_scf|^2 =  1.675E-09

      iter #   2 total cpu time :  5012.1 secs   av.it.:  15.6
      thresh= 4.093E-06 alpha_mix =  0.700 |ddv_scf|^2 =  3.510E-10

      iter #   3 total cpu time :  5099.3 secs   av.it.:  15.1
      thresh= 1.874E-06 alpha_mix =  0.700 |ddv_scf|^2 =  2.591E-12

      iter #   4 total cpu time :  5187.9 secs   av.it.:  15.6
      thresh= 1.610E-07 alpha_mix =  0.700 |ddv_scf|^2 =  4.687E-14

      iter #   5 total cpu time :  5277.5 secs   av.it.:  15.9
      thresh= 2.165E-08 alpha_mix =  0.700 |ddv_scf|^2 =  1.946E-15

     End of self-consistent calculation

     Convergence has been achieved 


     Representation #   2 mode #   2

     Self-consistent Calculation

      iter #   1 total cpu time :  5340.5 secs   av.it.:   3.0
      thresh= 1.000E-02 alpha_mix =  0.700 |ddv_scf|^2 =  1.385E-09

      iter #   2 total cpu time :  5428.0 secs   av.it.:  15.9
      thresh= 3.721E-06 alpha_mix =  0.700 |ddv_scf|^2 =  3.712E-10

      iter #   3 total cpu time :  5513.0 secs   av.it.:  15.3
      thresh= 1.927E-06 alpha_mix =  0.700 |ddv_scf|^2 =  3.000E-12

      iter #   4 total cpu time :  5599.9 secs   av.it.:  15.9
      thresh= 1.732E-07 alpha_mix =  0.700 |ddv_scf|^2 =  1.074E-13

      iter #   5 total cpu time :  5686.1 secs   av.it.:  15.9
      thresh= 3.277E-08 alpha_mix =  0.700 |ddv_scf|^2 =  4.803E-15

     End of self-consistent calculation

     Convergence has been achieved 


     Representation #   3 mode #   3

     Self-consistent Calculation

      iter #   1 total cpu time :  5748.6 secs   av.it.:   3.0
      thresh= 1.000E-02 alpha_mix =  0.700 |ddv_scf|^2 =  5.591E-10

      iter #   2 total cpu time :  5835.8 secs   av.it.:  15.9
      thresh= 2.364E-06 alpha_mix =  0.700 |ddv_scf|^2 =  4.443E-11

      iter #   3 total cpu time :  5926.2 secs   av.it.:  16.0
      thresh= 6.666E-07 alpha_mix =  0.700 |ddv_scf|^2 =  5.674E-12

      iter #   4 total cpu time :  6012.2 secs   av.it.:  15.8
      thresh= 2.382E-07 alpha_mix =  0.700 |ddv_scf|^2 =  1.031E-13

      iter #   5 total cpu time :  6098.0 secs   av.it.:  15.7
      thresh= 3.211E-08 alpha_mix =  0.700 |ddv_scf|^2 =  3.691E-15

     End of self-consistent calculation

     Convergence has been achieved 


     Representation #   4 mode #   4

     Self-consistent Calculation

      iter #   1 total cpu time :  6168.3 secs   av.it.:   5.0
      thresh= 1.000E-02 alpha_mix =  0.700 |ddv_scf|^2 =  1.136E-08

      iter #   2 total cpu time :  6257.4 secs   av.it.:  15.9
      thresh= 1.066E-05 alpha_mix =  0.700 |ddv_scf|^2 =  2.337E-09

      iter #   3 total cpu time :  6341.8 secs   av.it.:  15.1
      thresh= 4.834E-06 alpha_mix =  0.700 |ddv_scf|^2 =  1.893E-11

      iter #   4 total cpu time :  6427.6 secs   av.it.:  15.7
      thresh= 4.351E-07 alpha_mix =  0.700 |ddv_scf|^2 =  1.321E-12

      iter #   5 total cpu time :  6513.3 secs   av.it.:  15.7
      thresh= 1.149E-07 alpha_mix =  0.700 |ddv_scf|^2 =  1.653E-14

      iter #   6 total cpu time :  6599.5 secs   av.it.:  15.9
      thresh= 1.286E-08 alpha_mix =  0.700 |ddv_scf|^2 =  1.919E-16

     End of self-consistent calculation

     Convergence has been achieved 


     Representation #   5 mode #   5

     Self-consistent Calculation

      iter #   1 total cpu time :  6694.8 secs   av.it.:   6.5
      thresh= 1.000E-02 alpha_mix =  0.700 |ddv_scf|^2 =  5.715E-08

      iter #   2 total cpu time :  6777.8 secs   av.it.:  15.3
      thresh= 2.391E-05 alpha_mix =  0.700 |ddv_scf|^2 =  1.547E-08

      iter #   3 total cpu time :  6859.7 secs   av.it.:  14.6
      thresh= 1.244E-05 alpha_mix =  0.700 |ddv_scf|^2 =  3.170E-11

      iter #   4 total cpu time :  6943.8 secs   av.it.:  15.3
      thresh= 5.631E-07 alpha_mix =  0.700 |ddv_scf|^2 =  1.086E-12

      iter #   5 total cpu time :  7027.2 secs   av.it.:  14.9
      thresh= 1.042E-07 alpha_mix =  0.700 |ddv_scf|^2 =  1.077E-14

      iter #   6 total cpu time :  7110.1 secs   av.it.:  14.7
      thresh= 1.038E-08 alpha_mix =  0.700 |ddv_scf|^2 =  2.040E-16

     End of self-consistent calculation

     Convergence has been achieved 


     Representation #   6 mode #   6

     Self-consistent Calculation

      iter #   1 total cpu time :  7178.7 secs   av.it.:   3.0
      thresh= 1.000E-02 alpha_mix =  0.700 |ddv_scf|^2 =  1.652E-09

      iter #   2 total cpu time :  7266.5 secs   av.it.:  15.9
      thresh= 4.065E-06 alpha_mix =  0.700 |ddv_scf|^2 =  4.508E-10

      iter #   3 total cpu time :  7352.2 secs   av.it.:  15.5
      thresh= 2.123E-06 alpha_mix =  0.700 |ddv_scf|^2 =  4.356E-12

      iter #   4 total cpu time :  7437.9 secs   av.it.:  15.6
      thresh= 2.087E-07 alpha_mix =  0.700 |ddv_scf|^2 =  2.124E-13

      iter #   5 total cpu time :  7523.4 secs   av.it.:  15.6
      thresh= 4.608E-08 alpha_mix =  0.700 |ddv_scf|^2 =  5.020E-15

     End of self-consistent calculation

     Convergence has been achieved 


     Representation #   7 mode #   7

     Self-consistent Calculation

      iter #   1 total cpu time :  7584.9 secs   av.it.:   3.0
      thresh= 1.000E-02 alpha_mix =  0.700 |ddv_scf|^2 =  1.352E-09

      iter #   2 total cpu time :  7669.5 secs   av.it.:  15.4
      thresh= 3.677E-06 alpha_mix =  0.700 |ddv_scf|^2 =  1.169E-10

      iter #   3 total cpu time :  7754.6 secs   av.it.:  15.6
      thresh= 1.081E-06 alpha_mix =  0.700 |ddv_scf|^2 =  1.231E-12

      iter #   4 total cpu time :  7841.2 secs   av.it.:  15.9
      thresh= 1.109E-07 alpha_mix =  0.700 |ddv_scf|^2 =  1.220E-13

      iter #   5 total cpu time :  7927.3 secs   av.it.:  15.9
      thresh= 3.493E-08 alpha_mix =  0.700 |ddv_scf|^2 =  5.745E-15

     End of self-consistent calculation

     Convergence has been achieved 


     Representation #   8 mode #   8

     Self-consistent Calculation

      iter #   1 total cpu time :  7988.6 secs   av.it.:   3.0
      thresh= 1.000E-02 alpha_mix =  0.700 |ddv_scf|^2 =  8.061E-10

      iter #   2 total cpu time :  8073.8 secs   av.it.:  15.7
      thresh= 2.839E-06 alpha_mix =  0.700 |ddv_scf|^2 =  6.408E-11

      iter #   3 total cpu time :  8159.4 secs   av.it.:  15.9
      thresh= 8.005E-07 alpha_mix =  0.700 |ddv_scf|^2 =  2.036E-12

      iter #   4 total cpu time :  8245.4 secs   av.it.:  15.9
      thresh= 1.427E-07 alpha_mix =  0.700 |ddv_scf|^2 =  1.694E-13

      iter #   5 total cpu time :  8330.7 secs   av.it.:  15.7
      thresh= 4.116E-08 alpha_mix =  0.700 |ddv_scf|^2 =  5.770E-15

     End of self-consistent calculation

     Convergence has been achieved 


     Representation #   9 mode #   9

     Self-consistent Calculation

      iter #   1 total cpu time :  8399.0 secs   av.it.:   4.7
      thresh= 1.000E-02 alpha_mix =  0.700 |ddv_scf|^2 =  7.699E-09

      iter #   2 total cpu time :  8486.2 secs   av.it.:  16.0
      thresh= 8.774E-06 alpha_mix =  0.700 |ddv_scf|^2 =  1.106E-09

      iter #   3 total cpu time :  8570.9 secs   av.it.:  15.5
      thresh= 3.326E-06 alpha_mix =  0.700 |ddv_scf|^2 =  2.062E-11

      iter #   4 total cpu time :  8659.3 secs   av.it.:  15.8
      thresh= 4.540E-07 alpha_mix =  0.700 |ddv_scf|^2 =  1.563E-12

      iter #   5 total cpu time :  8749.0 secs   av.it.:  15.7
      thresh= 1.250E-07 alpha_mix =  0.700 |ddv_scf|^2 =  2.774E-14

      iter #   6 total cpu time :  8839.0 secs   av.it.:  15.9
      thresh= 1.665E-08 alpha_mix =  0.700 |ddv_scf|^2 =  2.162E-16

     End of self-consistent calculation

     Convergence has been achieved 


     Representation #  10 mode #  10

     Self-consistent Calculation

      iter #   1 total cpu time :  8919.8 secs   av.it.:   3.0
      thresh= 1.000E-02 alpha_mix =  0.700 |ddv_scf|^2 =  1.065E-09

      iter #   2 total cpu time :  9010.6 secs   av.it.:  15.9
      thresh= 3.263E-06 alpha_mix =  0.700 |ddv_scf|^2 =  1.100E-10

      iter #   3 total cpu time :  9101.5 secs   av.it.:  15.9
      thresh= 1.049E-06 alpha_mix =  0.700 |ddv_scf|^2 =  4.169E-12

      iter #   4 total cpu time :  9192.1 secs   av.it.:  15.9
      thresh= 2.042E-07 alpha_mix =  0.700 |ddv_scf|^2 =  1.754E-13

      iter #   5 total cpu time :  9281.9 secs   av.it.:  15.9
      thresh= 4.188E-08 alpha_mix =  0.700 |ddv_scf|^2 =  6.441E-15

     End of self-consistent calculation

     Convergence has been achieved 


     Representation #  11 mode #  11

     Self-consistent Calculation

      iter #   1 total cpu time :  9346.3 secs   av.it.:   3.0
      thresh= 1.000E-02 alpha_mix =  0.700 |ddv_scf|^2 =  8.314E-10

      iter #   2 total cpu time :  9432.9 secs   av.it.:  15.9
      thresh= 2.883E-06 alpha_mix =  0.700 |ddv_scf|^2 =  1.478E-10

      iter #   3 total cpu time :  9519.0 secs   av.it.:  15.7
      thresh= 1.216E-06 alpha_mix =  0.700 |ddv_scf|^2 =  6.387E-12

      iter #   4 total cpu time :  9603.7 secs   av.it.:  15.8
      thresh= 2.527E-07 alpha_mix =  0.700 |ddv_scf|^2 =  1.027E-13

      iter #   5 total cpu time :  9688.9 secs   av.it.:  15.4
      thresh= 3.205E-08 alpha_mix =  0.700 |ddv_scf|^2 =  4.342E-15

     End of self-consistent calculation

     Convergence has been achieved 


     Representation #  12 mode #  12

     Self-consistent Calculation

      iter #   1 total cpu time :  9751.3 secs   av.it.:   3.0
      thresh= 1.000E-02 alpha_mix =  0.700 |ddv_scf|^2 =  7.744E-10

      iter #   2 total cpu time :  9842.7 secs   av.it.:  16.0
      thresh= 2.783E-06 alpha_mix =  0.700 |ddv_scf|^2 =  1.155E-10

      iter #   3 total cpu time :  9935.6 secs   av.it.:  15.9
      thresh= 1.075E-06 alpha_mix =  0.700 |ddv_scf|^2 =  4.343E-12

      iter #   4 total cpu time : 10023.9 secs   av.it.:  15.9
      thresh= 2.084E-07 alpha_mix =  0.700 |ddv_scf|^2 =  2.724E-13

      iter #   5 total cpu time : 10109.6 secs   av.it.:  15.4
      thresh= 5.219E-08 alpha_mix =  0.700 |ddv_scf|^2 =  5.701E-15

     End of self-consistent calculation

     Convergence has been achieved 


     Representation #  13 mode #  13

     Self-consistent Calculation

      iter #   1 total cpu time : 10173.6 secs   av.it.:   3.5
      thresh= 1.000E-02 alpha_mix =  0.700 |ddv_scf|^2 =  1.753E-09

      iter #   2 total cpu time : 10261.1 secs   av.it.:  15.9
      thresh= 4.187E-06 alpha_mix =  0.700 |ddv_scf|^2 =  5.616E-10

      iter #   3 total cpu time : 10348.8 secs   av.it.:  15.0
      thresh= 2.370E-06 alpha_mix =  0.700 |ddv_scf|^2 =  1.765E-12

      iter #   4 total cpu time : 10436.8 secs   av.it.:  15.7
      thresh= 1.328E-07 alpha_mix =  0.700 |ddv_scf|^2 =  5.785E-14

      iter #   5 total cpu time : 10523.0 secs   av.it.:  15.9
      thresh= 2.405E-08 alpha_mix =  0.700 |ddv_scf|^2 =  2.768E-15

     End of self-consistent calculation

     Convergence has been achieved 


     Representation #  14 mode #  14

     Self-consistent Calculation

      iter #   1 total cpu time : 10591.9 secs   av.it.:   4.1
      thresh= 1.000E-02 alpha_mix =  0.700 |ddv_scf|^2 =  9.602E-09

      iter #   2 total cpu time : 10678.5 secs   av.it.:  15.5
      thresh= 9.799E-06 alpha_mix =  0.700 |ddv_scf|^2 =  1.198E-09

      iter #   3 total cpu time : 10762.6 secs   av.it.:  15.1
      thresh= 3.461E-06 alpha_mix =  0.700 |ddv_scf|^2 =  1.071E-11

      iter #   4 total cpu time : 10847.8 secs   av.it.:  15.9
      thresh= 3.272E-07 alpha_mix =  0.700 |ddv_scf|^2 =  1.541E-12

      iter #   5 total cpu time : 10933.3 secs   av.it.:  15.6
      thresh= 1.241E-07 alpha_mix =  0.700 |ddv_scf|^2 =  7.121E-14

      iter #   6 total cpu time : 11018.5 secs   av.it.:  15.3
      thresh= 2.668E-08 alpha_mix =  0.700 |ddv_scf|^2 =  1.814E-16

     End of self-consistent calculation

     Convergence has been achieved 


     Representation #  15 mode #  15

     Self-consistent Calculation

      iter #   1 total cpu time : 11099.1 secs   av.it.:   3.0
      thresh= 1.000E-02 alpha_mix =  0.700 |ddv_scf|^2 =  1.518E-09

      iter #   2 total cpu time : 11185.8 secs   av.it.:  15.9
      thresh= 3.896E-06 alpha_mix =  0.700 |ddv_scf|^2 =  2.808E-10

      iter #   3 total cpu time : 11270.5 secs   av.it.:  15.6
      thresh= 1.676E-06 alpha_mix =  0.700 |ddv_scf|^2 =  3.495E-12

      iter #   4 total cpu time : 11357.0 secs   av.it.:  15.9
      thresh= 1.869E-07 alpha_mix =  0.700 |ddv_scf|^2 =  1.332E-13

      iter #   5 total cpu time : 11445.2 secs   av.it.:  15.9
      thresh= 3.650E-08 alpha_mix =  0.700 |ddv_scf|^2 =  5.225E-15

     End of self-consistent calculation

     Convergence has been achieved 


     Representation #  16 mode #  16

     Self-consistent Calculation

      iter #   1 total cpu time : 11508.7 secs   av.it.:   3.0
      thresh= 1.000E-02 alpha_mix =  0.700 |ddv_scf|^2 =  1.626E-09

      iter #   2 total cpu time : 11596.6 secs   av.it.:  15.9
      thresh= 4.033E-06 alpha_mix =  0.700 |ddv_scf|^2 =  5.337E-10

      iter #   3 total cpu time : 11680.9 secs   av.it.:  15.1
      thresh= 2.310E-06 alpha_mix =  0.700 |ddv_scf|^2 =  1.716E-12

      iter #   4 total cpu time : 11767.3 secs   av.it.:  15.9
      thresh= 1.310E-07 alpha_mix =  0.700 |ddv_scf|^2 =  4.639E-14

      iter #   5 total cpu time : 11852.0 secs   av.it.:  15.7
      thresh= 2.154E-08 alpha_mix =  0.700 |ddv_scf|^2 =  3.004E-15

     End of self-consistent calculation

     Convergence has been achieved 


     Representation #  17 mode #  17

     Self-consistent Calculation

      iter #   1 total cpu time : 11920.6 secs   av.it.:   4.9
      thresh= 1.000E-02 alpha_mix =  0.700 |ddv_scf|^2 =  1.372E-08

      iter #   2 total cpu time : 12010.3 secs   av.it.:  15.9
      thresh= 1.171E-05 alpha_mix =  0.700 |ddv_scf|^2 =  5.782E-09

      iter #   3 total cpu time : 12095.8 secs   av.it.:  14.9
      thresh= 7.604E-06 alpha_mix =  0.700 |ddv_scf|^2 =  9.620E-11

      iter #   4 total cpu time : 12183.4 secs   av.it.:  15.1
      thresh= 9.808E-07 alpha_mix =  0.700 |ddv_scf|^2 =  6.386E-12

      iter #   5 total cpu time : 12272.0 secs   av.it.:  15.2
      thresh= 2.527E-07 alpha_mix =  0.700 |ddv_scf|^2 =  4.957E-13

      iter #   6 total cpu time : 12357.8 secs   av.it.:  15.0
      thresh= 7.041E-08 alpha_mix =  0.700 |ddv_scf|^2 =  1.322E-14

      iter #   7 total cpu time : 12446.5 secs   av.it.:  15.9
      thresh= 1.150E-08 alpha_mix =  0.700 |ddv_scf|^2 =  2.513E-15

     End of self-consistent calculation

     Convergence has been achieved 


     Representation #  18 mode #  18

     Self-consistent Calculation

      iter #   1 total cpu time : 12528.5 secs   av.it.:   3.1
      thresh= 1.000E-02 alpha_mix =  0.700 |ddv_scf|^2 =  3.721E-09

      iter #   2 total cpu time : 12616.8 secs   av.it.:  15.5
      thresh= 6.100E-06 alpha_mix =  0.700 |ddv_scf|^2 =  2.137E-09

      iter #   3 total cpu time : 12701.0 secs   av.it.:  14.9
      thresh= 4.623E-06 alpha_mix =  0.700 |ddv_scf|^2 =  3.795E-12

      iter #   4 total cpu time : 12790.3 secs   av.it.:  15.9
      thresh= 1.948E-07 alpha_mix =  0.700 |ddv_scf|^2 =  7.156E-13

      iter #   5 total cpu time : 12876.4 secs   av.it.:  15.0
      thresh= 8.459E-08 alpha_mix =  0.700 |ddv_scf|^2 =  6.717E-14

      iter #   6 total cpu time : 12961.7 secs   av.it.:  14.9
      thresh= 2.592E-08 alpha_mix =  0.700 |ddv_scf|^2 =  3.328E-15

     End of self-consistent calculation

     Convergence has been achieved 


     Representation #  19 mode #  19

     Self-consistent Calculation

      iter #   1 total cpu time : 13025.5 secs   av.it.:   3.0
      thresh= 1.000E-02 alpha_mix =  0.700 |ddv_scf|^2 =  9.844E-10

      iter #   2 total cpu time : 13115.7 secs   av.it.:  15.9
      thresh= 3.137E-06 alpha_mix =  0.700 |ddv_scf|^2 =  2.126E-10

      iter #   3 total cpu time : 13204.3 secs   av.it.:  15.7
      thresh= 1.458E-06 alpha_mix =  0.700 |ddv_scf|^2 =  1.144E-11

      iter #   4 total cpu time : 13291.1 secs   av.it.:  15.0
      thresh= 3.382E-07 alpha_mix =  0.700 |ddv_scf|^2 =  5.781E-13

      iter #   5 total cpu time : 13379.0 secs   av.it.:  15.6
      thresh= 7.603E-08 alpha_mix =  0.700 |ddv_scf|^2 =  1.140E-14

      iter #   6 total cpu time : 13467.8 secs   av.it.:  15.9
      thresh= 1.068E-08 alpha_mix =  0.700 |ddv_scf|^2 =  1.911E-15

     End of self-consistent calculation

     Convergence has been achieved 


     Representation #  20 mode #  20

     Self-consistent Calculation

      iter #   1 total cpu time : 13533.3 secs   av.it.:   3.9
      thresh= 1.000E-02 alpha_mix =  0.700 |ddv_scf|^2 =  6.222E-09

      iter #   2 total cpu time : 13620.9 secs   av.it.:  15.4
      thresh= 7.888E-06 alpha_mix =  0.700 |ddv_scf|^2 =  3.822E-09

      iter #   3 total cpu time : 13705.2 secs   av.it.:  14.7
      thresh= 6.182E-06 alpha_mix =  0.700 |ddv_scf|^2 =  1.177E-11

      iter #   4 total cpu time : 13790.4 secs   av.it.:  14.9
      thresh= 3.430E-07 alpha_mix =  0.700 |ddv_scf|^2 =  1.004E-12

      iter #   5 total cpu time : 13877.4 secs   av.it.:  15.1
      thresh= 1.002E-07 alpha_mix =  0.700 |ddv_scf|^2 =  8.811E-14

      iter #   6 total cpu time : 13961.7 secs   av.it.:  14.9
      thresh= 2.968E-08 alpha_mix =  0.700 |ddv_scf|^2 =  7.009E-15

     End of self-consistent calculation

     Convergence has been achieved 


     Representation #  21 mode #  21

     Self-consistent Calculation

      iter #   1 total cpu time : 14025.8 secs   av.it.:   3.0
      thresh= 1.000E-02 alpha_mix =  0.700 |ddv_scf|^2 =  6.598E-09

      iter #   2 total cpu time : 14112.4 secs   av.it.:  15.4
      thresh= 8.123E-06 alpha_mix =  0.700 |ddv_scf|^2 =  4.481E-09

      iter #   3 total cpu time : 14195.2 secs   av.it.:  14.9
      thresh= 6.694E-06 alpha_mix =  0.700 |ddv_scf|^2 =  4.787E-12

      iter #   4 total cpu time : 14283.3 secs   av.it.:  15.9
      thresh= 2.188E-07 alpha_mix =  0.700 |ddv_scf|^2 =  8.950E-13

      iter #   5 total cpu time : 14370.3 secs   av.it.:  15.6
      thresh= 9.461E-08 alpha_mix =  0.700 |ddv_scf|^2 =  7.636E-14

      iter #   6 total cpu time : 14456.7 secs   av.it.:  15.2
      thresh= 2.763E-08 alpha_mix =  0.700 |ddv_scf|^2 =  2.981E-15

     End of self-consistent calculation

     Convergence has been achieved 


     Representation #  22 mode #  22

     Self-consistent Calculation

      iter #   1 total cpu time : 14535.8 secs   av.it.:   6.4
      thresh= 1.000E-02 alpha_mix =  0.700 |ddv_scf|^2 =  3.872E-08

      iter #   2 total cpu time : 14622.6 secs   av.it.:  15.3
      thresh= 1.968E-05 alpha_mix =  0.700 |ddv_scf|^2 =  6.160E-09

      iter #   3 total cpu time : 14708.0 secs   av.it.:  15.1
      thresh= 7.849E-06 alpha_mix =  0.700 |ddv_scf|^2 =  2.992E-11

      iter #   4 total cpu time : 14793.6 secs   av.it.:  15.0
      thresh= 5.470E-07 alpha_mix =  0.700 |ddv_scf|^2 =  2.234E-13

      iter #   5 total cpu time : 14881.1 secs   av.it.:  15.6
      thresh= 4.727E-08 alpha_mix =  0.700 |ddv_scf|^2 =  8.046E-15

     End of self-consistent calculation

     Convergence has been achieved 


     Representation #  23 mode #  23

     Self-consistent Calculation

      iter #   1 total cpu time : 14950.8 secs   av.it.:   3.0
      thresh= 1.000E-02 alpha_mix =  0.700 |ddv_scf|^2 =  4.494E-09

      iter #   2 total cpu time : 15037.2 secs   av.it.:  15.0
      thresh= 6.704E-06 alpha_mix =  0.700 |ddv_scf|^2 =  2.328E-09

      iter #   3 total cpu time : 15120.4 secs   av.it.:  14.7
      thresh= 4.825E-06 alpha_mix =  0.700 |ddv_scf|^2 =  1.658E-11

      iter #   4 total cpu time : 15206.6 secs   av.it.:  15.0
      thresh= 4.072E-07 alpha_mix =  0.700 |ddv_scf|^2 =  1.442E-12

      iter #   5 total cpu time : 15291.3 secs   av.it.:  14.9
      thresh= 1.201E-07 alpha_mix =  0.700 |ddv_scf|^2 =  2.566E-14

      iter #   6 total cpu time : 15379.6 secs   av.it.:  15.8
      thresh= 1.602E-08 alpha_mix =  0.700 |ddv_scf|^2 =  3.916E-15

     End of self-consistent calculation

     Convergence has been achieved 


     Representation #  24 mode #  24

     Self-consistent Calculation

      iter #   1 total cpu time : 15442.1 secs   av.it.:   3.0
      thresh= 1.000E-02 alpha_mix =  0.700 |ddv_scf|^2 =  7.039E-10

      iter #   2 total cpu time : 15530.3 secs   av.it.:  15.7
      thresh= 2.653E-06 alpha_mix =  0.700 |ddv_scf|^2 =  9.861E-11

      iter #   3 total cpu time : 15617.7 secs   av.it.:  15.6
      thresh= 9.930E-07 alpha_mix =  0.700 |ddv_scf|^2 =  9.597E-12

      iter #   4 total cpu time : 15702.5 secs   av.it.:  15.0
      thresh= 3.098E-07 alpha_mix =  0.700 |ddv_scf|^2 =  6.960E-13

      iter #   5 total cpu time : 15788.5 secs   av.it.:  15.0
      thresh= 8.343E-08 alpha_mix =  0.700 |ddv_scf|^2 =  1.194E-14

      iter #   6 total cpu time : 15875.7 secs   av.it.:  15.1
      thresh= 1.093E-08 alpha_mix =  0.700 |ddv_scf|^2 =  1.218E-15

     End of self-consistent calculation

     Convergence has been achieved 


     Representation #  25 mode #  25

     Self-consistent Calculation

      iter #   1 total cpu time : 15939.8 secs   av.it.:   3.1
      thresh= 1.000E-02 alpha_mix =  0.700 |ddv_scf|^2 =  5.218E-09

      iter #   2 total cpu time : 16026.1 secs   av.it.:  15.7
      thresh= 7.224E-06 alpha_mix =  0.700 |ddv_scf|^2 =  2.889E-09

      iter #   3 total cpu time : 16108.6 secs   av.it.:  14.9
      thresh= 5.375E-06 alpha_mix =  0.700 |ddv_scf|^2 =  1.918E-11

      iter #   4 total cpu time : 16192.6 secs   av.it.:  15.0
      thresh= 4.380E-07 alpha_mix =  0.700 |ddv_scf|^2 =  1.252E-12

      iter #   5 total cpu time : 16277.9 secs   av.it.:  15.3
      thresh= 1.119E-07 alpha_mix =  0.700 |ddv_scf|^2 =  5.206E-14

      iter #   6 total cpu time : 16363.2 secs   av.it.:  15.3
      thresh= 2.282E-08 alpha_mix =  0.700 |ddv_scf|^2 =  7.854E-15

     End of self-consistent calculation

     Convergence has been achieved 


     Representation #  26 mode #  26

     Self-consistent Calculation

      iter #   1 total cpu time : 16426.1 secs   av.it.:   3.0
      thresh= 1.000E-02 alpha_mix =  0.700 |ddv_scf|^2 =  4.246E-09

      iter #   2 total cpu time : 16509.0 secs   av.it.:  15.0
      thresh= 6.516E-06 alpha_mix =  0.700 |ddv_scf|^2 =  1.391E-09

      iter #   3 total cpu time : 16592.7 secs   av.it.:  14.7
      thresh= 3.730E-06 alpha_mix =  0.700 |ddv_scf|^2 =  9.827E-12

      iter #   4 total cpu time : 16677.3 secs   av.it.:  15.0
      thresh= 3.135E-07 alpha_mix =  0.700 |ddv_scf|^2 =  1.810E-12

      iter #   5 total cpu time : 16760.5 secs   av.it.:  14.9
      thresh= 1.345E-07 alpha_mix =  0.700 |ddv_scf|^2 =  1.829E-14

      iter #   6 total cpu time : 16849.8 secs   av.it.:  15.3
      thresh= 1.352E-08 alpha_mix =  0.700 |ddv_scf|^2 =  3.788E-15

     End of self-consistent calculation

     Convergence has been achieved 


     Representation #  27 mode #  27

     Self-consistent Calculation

      iter #   1 total cpu time : 16920.0 secs   av.it.:   5.0
      thresh= 1.000E-02 alpha_mix =  0.700 |ddv_scf|^2 =  4.874E-08

      iter #   2 total cpu time : 17003.4 secs   av.it.:  14.9
      thresh= 2.208E-05 alpha_mix =  0.700 |ddv_scf|^2 =  2.896E-08

      iter #   3 total cpu time : 17084.8 secs   av.it.:  14.3
      thresh= 1.702E-05 alpha_mix =  0.700 |ddv_scf|^2 =  1.564E-10

      iter #   4 total cpu time : 17169.2 secs   av.it.:  15.0
      thresh= 1.251E-06 alpha_mix =  0.700 |ddv_scf|^2 =  6.028E-12

      iter #   5 total cpu time : 17254.6 secs   av.it.:  15.0
      thresh= 2.455E-07 alpha_mix =  0.700 |ddv_scf|^2 =  1.293E-13

      iter #   6 total cpu time : 17342.5 secs   av.it.:  15.9
      thresh= 3.596E-08 alpha_mix =  0.700 |ddv_scf|^2 =  1.662E-14

      iter #   7 total cpu time : 17428.8 secs   av.it.:  15.1
      thresh= 1.289E-08 alpha_mix =  0.700 |ddv_scf|^2 =  7.684E-16

     End of self-consistent calculation

     Convergence has been achieved 


     Representation #  28 mode #  28

     Self-consistent Calculation

      iter #   1 total cpu time : 17509.6 secs   av.it.:   3.0
      thresh= 1.000E-02 alpha_mix =  0.700 |ddv_scf|^2 =  8.294E-09

      iter #   2 total cpu time : 17594.2 secs   av.it.:  15.0
      thresh= 9.107E-06 alpha_mix =  0.700 |ddv_scf|^2 =  6.000E-09

      iter #   3 total cpu time : 17674.9 secs   av.it.:  14.0
      thresh= 7.746E-06 alpha_mix =  0.700 |ddv_scf|^2 =  4.533E-12

      iter #   4 total cpu time : 17762.2 secs   av.it.:  15.6
      thresh= 2.129E-07 alpha_mix =  0.700 |ddv_scf|^2 =  1.058E-12

      iter #   5 total cpu time : 17845.2 secs   av.it.:  14.9
      thresh= 1.028E-07 alpha_mix =  0.700 |ddv_scf|^2 =  1.170E-14

      iter #   6 total cpu time : 17930.0 secs   av.it.:  15.3
      thresh= 1.082E-08 alpha_mix =  0.700 |ddv_scf|^2 =  1.228E-15

     End of self-consistent calculation

     Convergence has been achieved 


     Representation #  29 mode #  29

     Self-consistent Calculation

      iter #   1 total cpu time : 17994.1 secs   av.it.:   3.9
      thresh= 1.000E-02 alpha_mix =  0.700 |ddv_scf|^2 =  4.446E-09

      iter #   2 total cpu time : 18079.6 secs   av.it.:  15.7
      thresh= 6.668E-06 alpha_mix =  0.700 |ddv_scf|^2 =  2.753E-09

      iter #   3 total cpu time : 18161.9 secs   av.it.:  14.9
      thresh= 5.247E-06 alpha_mix =  0.700 |ddv_scf|^2 =  2.643E-12

      iter #   4 total cpu time : 18248.5 secs   av.it.:  15.9
      thresh= 1.626E-07 alpha_mix =  0.700 |ddv_scf|^2 =  7.459E-13

      iter #   5 total cpu time : 18332.4 secs   av.it.:  15.0
      thresh= 8.637E-08 alpha_mix =  0.700 |ddv_scf|^2 =  4.117E-14

      iter #   6 total cpu time : 18415.8 secs   av.it.:  15.0
      thresh= 2.029E-08 alpha_mix =  0.700 |ddv_scf|^2 =  4.159E-15

     End of self-consistent calculation

     Convergence has been achieved 


     Representation #  30 mode #  30

     Self-consistent Calculation

      iter #   1 total cpu time : 18486.2 secs   av.it.:   5.0
      thresh= 1.000E-02 alpha_mix =  0.700 |ddv_scf|^2 =  4.990E-08

      iter #   2 total cpu time : 18570.7 secs   av.it.:  15.0
      thresh= 2.234E-05 alpha_mix =  0.700 |ddv_scf|^2 =  3.712E-08

      iter #   3 total cpu time : 18650.9 secs   av.it.:  14.2
      thresh= 1.927E-05 alpha_mix =  0.700 |ddv_scf|^2 =  6.395E-11

      iter #   4 total cpu time : 18737.8 secs   av.it.:  15.5
      thresh= 7.997E-07 alpha_mix =  0.700 |ddv_scf|^2 =  6.763E-12

      iter #   5 total cpu time : 18825.2 secs   av.it.:  15.1
      thresh= 2.601E-07 alpha_mix =  0.700 |ddv_scf|^2 =  3.064E-13

      iter #   6 total cpu time : 18913.8 secs   av.it.:  15.7
      thresh= 5.536E-08 alpha_mix =  0.700 |ddv_scf|^2 =  1.844E-14

      iter #   7 total cpu time : 19002.7 secs   av.it.:  15.8
      thresh= 1.358E-08 alpha_mix =  0.700 |ddv_scf|^2 =  2.064E-15

     End of self-consistent calculation

     Convergence has been achieved 


     Representation #  31 mode #  31

     Self-consistent Calculation

      iter #   1 total cpu time : 19088.5 secs   av.it.:   3.0
      thresh= 1.000E-02 alpha_mix =  0.700 |ddv_scf|^2 =  6.443E-09

      iter #   2 total cpu time : 19189.8 secs   av.it.:  15.0
      thresh= 8.027E-06 alpha_mix =  0.700 |ddv_scf|^2 =  3.416E-09

      iter #   3 total cpu time : 19270.6 secs   av.it.:  14.6
      thresh= 5.845E-06 alpha_mix =  0.700 |ddv_scf|^2 =  1.340E-11

      iter #   4 total cpu time : 19359.0 secs   av.it.:  15.0
      thresh= 3.660E-07 alpha_mix =  0.700 |ddv_scf|^2 =  1.769E-12

      iter #   5 total cpu time : 19445.1 secs   av.it.:  14.6
      thresh= 1.330E-07 alpha_mix =  0.700 |ddv_scf|^2 =  4.881E-14

      iter #   6 total cpu time : 19535.0 secs   av.it.:  15.0
      thresh= 2.209E-08 alpha_mix =  0.700 |ddv_scf|^2 =  8.510E-15

     End of self-consistent calculation

     Convergence has been achieved 


     Representation #  32 mode #  32

     Self-consistent Calculation

      iter #   1 total cpu time : 19600.0 secs   av.it.:   3.3
      thresh= 1.000E-02 alpha_mix =  0.700 |ddv_scf|^2 =  2.581E-09

      iter #   2 total cpu time : 19687.3 secs   av.it.:  15.9
      thresh= 5.080E-06 alpha_mix =  0.700 |ddv_scf|^2 =  1.502E-09

      iter #   3 total cpu time : 19770.1 secs   av.it.:  14.9
      thresh= 3.876E-06 alpha_mix =  0.700 |ddv_scf|^2 =  6.281E-12

      iter #   4 total cpu time : 19853.7 secs   av.it.:  15.0
      thresh= 2.506E-07 alpha_mix =  0.700 |ddv_scf|^2 =  7.801E-13

      iter #   5 total cpu time : 19937.8 secs   av.it.:  15.0
      thresh= 8.833E-08 alpha_mix =  0.700 |ddv_scf|^2 =  6.056E-14

      iter #   6 total cpu time : 20023.9 secs   av.it.:  15.0
      thresh= 2.461E-08 alpha_mix =  0.700 |ddv_scf|^2 =  7.012E-15

     End of self-consistent calculation

     Convergence has been achieved 


     Representation #  33 mode #  33

     Self-consistent Calculation

      iter #   1 total cpu time : 20089.7 secs   av.it.:   3.5
      thresh= 1.000E-02 alpha_mix =  0.700 |ddv_scf|^2 =  4.298E-09

      iter #   2 total cpu time : 20180.0 secs   av.it.:  15.8
      thresh= 6.556E-06 alpha_mix =  0.700 |ddv_scf|^2 =  3.199E-09

      iter #   3 total cpu time : 20264.7 secs   av.it.:  14.9
      thresh= 5.656E-06 alpha_mix =  0.700 |ddv_scf|^2 =  5.652E-12

      iter #   4 total cpu time : 20355.1 secs   av.it.:  15.9
      thresh= 2.377E-07 alpha_mix =  0.700 |ddv_scf|^2 =  4.706E-13

      iter #   5 total cpu time : 20446.2 secs   av.it.:  15.9
      thresh= 6.860E-08 alpha_mix =  0.700 |ddv_scf|^2 =  1.775E-14

      iter #   6 total cpu time : 20535.2 secs   av.it.:  15.8
      thresh= 1.332E-08 alpha_mix =  0.700 |ddv_scf|^2 =  1.095E-15

     End of self-consistent calculation

     Convergence has been achieved 


     Representation #  34 mode #  34

     Self-consistent Calculation

      iter #   1 total cpu time : 20597.5 secs   av.it.:   3.0
      thresh= 1.000E-02 alpha_mix =  0.700 |ddv_scf|^2 =  7.883E-10

      iter #   2 total cpu time : 20685.2 secs   av.it.:  15.7
      thresh= 2.808E-06 alpha_mix =  0.700 |ddv_scf|^2 =  8.013E-11

      iter #   3 total cpu time : 20774.3 secs   av.it.:  15.6
      thresh= 8.952E-07 alpha_mix =  0.700 |ddv_scf|^2 =  6.119E-12

      iter #   4 total cpu time : 20862.2 secs   av.it.:  15.0
      thresh= 2.474E-07 alpha_mix =  0.700 |ddv_scf|^2 =  5.828E-13

      iter #   5 total cpu time : 20949.5 secs   av.it.:  15.0
      thresh= 7.634E-08 alpha_mix =  0.700 |ddv_scf|^2 =  1.867E-14

      iter #   6 total cpu time : 21038.3 secs   av.it.:  15.7
      thresh= 1.366E-08 alpha_mix =  0.700 |ddv_scf|^2 =  8.426E-16

     End of self-consistent calculation

     Convergence has been achieved 


     Representation #  35 mode #  35

     Self-consistent Calculation

      iter #   1 total cpu time : 21101.9 secs   av.it.:   3.0
      thresh= 1.000E-02 alpha_mix =  0.700 |ddv_scf|^2 =  2.729E-09

      iter #   2 total cpu time : 21187.5 secs   av.it.:  15.5
      thresh= 5.224E-06 alpha_mix =  0.700 |ddv_scf|^2 =  1.072E-09

      iter #   3 total cpu time : 21271.2 secs   av.it.:  14.9
      thresh= 3.274E-06 alpha_mix =  0.700 |ddv_scf|^2 =  1.932E-11

      iter #   4 total cpu time : 21356.1 secs   av.it.:  15.0
      thresh= 4.396E-07 alpha_mix =  0.700 |ddv_scf|^2 =  6.008E-13

      iter #   5 total cpu time : 21442.2 secs   av.it.:  15.7
      thresh= 7.751E-08 alpha_mix =  0.700 |ddv_scf|^2 =  3.496E-14

      iter #   6 total cpu time : 21527.1 secs   av.it.:  15.2
      thresh= 1.870E-08 alpha_mix =  0.700 |ddv_scf|^2 =  1.370E-15

     End of self-consistent calculation

     Convergence has been achieved 


     Representation #  36 mode #  36

     Self-consistent Calculation

      iter #   1 total cpu time : 21596.3 secs   av.it.:   4.1
      thresh= 1.000E-02 alpha_mix =  0.700 |ddv_scf|^2 =  5.420E-09

      iter #   2 total cpu time : 21685.0 secs   av.it.:  16.0
      thresh= 7.362E-06 alpha_mix =  0.700 |ddv_scf|^2 =  3.610E-10

      iter #   3 total cpu time : 21772.8 secs   av.it.:  15.9
      thresh= 1.900E-06 alpha_mix =  0.700 |ddv_scf|^2 =  1.305E-11

      iter #   4 total cpu time : 21859.6 secs   av.it.:  15.8
      thresh= 3.612E-07 alpha_mix =  0.700 |ddv_scf|^2 =  3.629E-12

      iter #   5 total cpu time : 21944.2 secs   av.it.:  15.0
      thresh= 1.905E-07 alpha_mix =  0.700 |ddv_scf|^2 =  1.041E-13

      iter #   6 total cpu time : 22030.3 secs   av.it.:  15.7
      thresh= 3.226E-08 alpha_mix =  0.700 |ddv_scf|^2 =  3.693E-15

     End of self-consistent calculation

     Convergence has been achieved 


     Representation #  37 mode #  37

     Self-consistent Calculation

      iter #   1 total cpu time : 22110.5 secs   av.it.:   3.0
      thresh= 1.000E-02 alpha_mix =  0.700 |ddv_scf|^2 =  8.588E-10

      iter #   2 total cpu time : 22198.0 secs   av.it.:  15.9
      thresh= 2.931E-06 alpha_mix =  0.700 |ddv_scf|^2 =  1.464E-10

      iter #   3 total cpu time : 22284.0 secs   av.it.:  15.4
      thresh= 1.210E-06 alpha_mix =  0.700 |ddv_scf|^2 =  1.903E-11

      iter #   4 total cpu time : 22367.6 secs   av.it.:  15.0
      thresh= 4.362E-07 alpha_mix =  0.700 |ddv_scf|^2 =  2.856E-13

      iter #   5 total cpu time : 22453.1 secs   av.it.:  15.4
      thresh= 5.344E-08 alpha_mix =  0.700 |ddv_scf|^2 =  6.357E-15

     End of self-consistent calculation

     Convergence has been achieved 


     Representation #  38 mode #  38

     Self-consistent Calculation

      iter #   1 total cpu time : 22516.6 secs   av.it.:   3.0
      thresh= 1.000E-02 alpha_mix =  0.700 |ddv_scf|^2 =  1.750E-09

      iter #   2 total cpu time : 22602.9 secs   av.it.:  15.8
      thresh= 4.184E-06 alpha_mix =  0.700 |ddv_scf|^2 =  3.827E-10

      iter #   3 total cpu time : 22689.0 secs   av.it.:  15.0
      thresh= 1.956E-06 alpha_mix =  0.700 |ddv_scf|^2 =  1.443E-11

      iter #   4 total cpu time : 22774.8 secs   av.it.:  15.0
      thresh= 3.798E-07 alpha_mix =  0.700 |ddv_scf|^2 =  9.226E-13

      iter #   5 total cpu time : 22861.9 secs   av.it.:  15.2
      thresh= 9.605E-08 alpha_mix =  0.700 |ddv_scf|^2 =  2.374E-14

      iter #   6 total cpu time : 22952.1 secs   av.it.:  15.7
      thresh= 1.541E-08 alpha_mix =  0.700 |ddv_scf|^2 =  1.003E-15

     End of self-consistent calculation

     Convergence has been achieved 


     Representation #  39 mode #  39

     Self-consistent Calculation

      iter #   1 total cpu time : 23031.3 secs   av.it.:   6.1
      thresh= 1.000E-02 alpha_mix =  0.700 |ddv_scf|^2 =  2.110E-07

      iter #   2 total cpu time : 23118.1 secs   av.it.:  15.0
      thresh= 4.593E-05 alpha_mix =  0.700 |ddv_scf|^2 =  1.047E-07

      iter #   3 total cpu time : 23203.0 secs   av.it.:  14.7
      thresh= 3.235E-05 alpha_mix =  0.700 |ddv_scf|^2 =  5.197E-10

      iter #   4 total cpu time : 23292.7 secs   av.it.:  15.2
      thresh= 2.280E-06 alpha_mix =  0.700 |ddv_scf|^2 =  1.173E-11

      iter #   5 total cpu time : 23381.5 secs   av.it.:  15.6
      thresh= 3.424E-07 alpha_mix =  0.700 |ddv_scf|^2 =  5.284E-13

      iter #   6 total cpu time : 23466.2 secs   av.it.:  14.7
      thresh= 7.269E-08 alpha_mix =  0.700 |ddv_scf|^2 =  4.459E-14

      iter #   7 total cpu time : 23549.5 secs   av.it.:  14.6
      thresh= 2.112E-08 alpha_mix =  0.700 |ddv_scf|^2 =  4.890E-15

     End of self-consistent calculation

     Convergence has been achieved 


     Representation #  40 mode #  40

     Self-consistent Calculation

      iter #   1 total cpu time : 23623.6 secs   av.it.:   4.5
      thresh= 1.000E-02 alpha_mix =  0.700 |ddv_scf|^2 =  8.532E-09

      iter #   2 total cpu time : 23712.9 secs   av.it.:  15.9
      thresh= 9.237E-06 alpha_mix =  0.700 |ddv_scf|^2 =  1.873E-09

      iter #   3 total cpu time : 23799.9 secs   av.it.:  15.2
      thresh= 4.328E-06 alpha_mix =  0.700 |ddv_scf|^2 =  4.763E-11

      iter #   4 total cpu time : 23886.6 secs   av.it.:  15.1
      thresh= 6.902E-07 alpha_mix =  0.700 |ddv_scf|^2 =  5.894E-12

      iter #   5 total cpu time : 23973.2 secs   av.it.:  15.0
      thresh= 2.428E-07 alpha_mix =  0.700 |ddv_scf|^2 =  3.571E-13

      iter #   6 total cpu time : 24060.9 secs   av.it.:  15.6
      thresh= 5.976E-08 alpha_mix =  0.700 |ddv_scf|^2 =  1.223E-15

     End of self-consistent calculation

     Convergence has been achieved 


     Representation #  41 mode #  41

     Self-consistent Calculation

      iter #   1 total cpu time : 24144.5 secs   av.it.:   3.9
      thresh= 1.000E-02 alpha_mix =  0.700 |ddv_scf|^2 =  6.094E-09

      iter #   2 total cpu time : 24232.0 secs   av.it.:  15.5
      thresh= 7.807E-06 alpha_mix =  0.700 |ddv_scf|^2 =  4.068E-09

      iter #   3 total cpu time : 24316.9 secs   av.it.:  14.8
      thresh= 6.378E-06 alpha_mix =  0.700 |ddv_scf|^2 =  4.369E-12

      iter #   4 total cpu time : 24405.7 secs   av.it.:  15.9
      thresh= 2.090E-07 alpha_mix =  0.700 |ddv_scf|^2 =  7.228E-13

      iter #   5 total cpu time : 24493.6 secs   av.it.:  15.3
      thresh= 8.502E-08 alpha_mix =  0.700 |ddv_scf|^2 =  5.177E-14

      iter #   6 total cpu time : 24580.7 secs   av.it.:  15.0
      thresh= 2.275E-08 alpha_mix =  0.700 |ddv_scf|^2 =  7.137E-16

     End of self-consistent calculation

     Convergence has been achieved 


     Representation #  42 mode #  42

     Self-consistent Calculation

      iter #   1 total cpu time : 24642.4 secs   av.it.:   3.0
      thresh= 1.000E-02 alpha_mix =  0.700 |ddv_scf|^2 =  3.678E-10

      iter #   2 total cpu time : 24727.2 secs   av.it.:  15.8
      thresh= 1.918E-06 alpha_mix =  0.700 |ddv_scf|^2 =  5.419E-11

      iter #   3 total cpu time : 24814.6 secs   av.it.:  15.3
      thresh= 7.361E-07 alpha_mix =  0.700 |ddv_scf|^2 =  1.969E-11

      iter #   4 total cpu time : 24900.1 secs   av.it.:  14.9
      thresh= 4.437E-07 alpha_mix =  0.700 |ddv_scf|^2 =  1.852E-13

      iter #   5 total cpu time : 24989.8 secs   av.it.:  15.6
      thresh= 4.303E-08 alpha_mix =  0.700 |ddv_scf|^2 =  1.190E-14

      iter #   6 total cpu time : 25080.2 secs   av.it.:  15.4
      thresh= 1.091E-08 alpha_mix =  0.700 |ddv_scf|^2 =  5.092E-16

     End of self-consistent calculation

     Convergence has been achieved 


     Representation #  43 mode #  43

     Self-consistent Calculation

      iter #   1 total cpu time : 25150.0 secs   av.it.:   4.1
      thresh= 1.000E-02 alpha_mix =  0.700 |ddv_scf|^2 =  5.571E-09

      iter #   2 total cpu time : 25237.9 secs   av.it.:  16.0
      thresh= 7.464E-06 alpha_mix =  0.700 |ddv_scf|^2 =  4.032E-10

      iter #   3 total cpu time : 25325.0 secs   av.it.:  15.9
      thresh= 2.008E-06 alpha_mix =  0.700 |ddv_scf|^2 =  2.394E-11

      iter #   4 total cpu time : 25412.5 secs   av.it.:  15.2
      thresh= 4.893E-07 alpha_mix =  0.700 |ddv_scf|^2 =  4.623E-12

      iter #   5 total cpu time : 25496.8 secs   av.it.:  15.0
      thresh= 2.150E-07 alpha_mix =  0.700 |ddv_scf|^2 =  1.557E-14

      iter #   6 total cpu time : 25587.2 secs   av.it.:  15.9
      thresh= 1.248E-08 alpha_mix =  0.700 |ddv_scf|^2 =  3.000E-16

     End of self-consistent calculation

     Convergence has been achieved 


     Representation #  44 mode #  44

     Self-consistent Calculation

      iter #   1 total cpu time : 25683.2 secs   av.it.:   6.3
      thresh= 1.000E-02 alpha_mix =  0.700 |ddv_scf|^2 =  7.424E-08

      iter #   2 total cpu time : 25769.2 secs   av.it.:  15.6
      thresh= 2.725E-05 alpha_mix =  0.700 |ddv_scf|^2 =  2.277E-08

      iter #   3 total cpu time : 25853.2 secs   av.it.:  15.0
      thresh= 1.509E-05 alpha_mix =  0.700 |ddv_scf|^2 =  3.028E-10

      iter #   4 total cpu time : 25937.9 secs   av.it.:  14.9
      thresh= 1.740E-06 alpha_mix =  0.700 |ddv_scf|^2 =  1.962E-11

      iter #   5 total cpu time : 26023.1 secs   av.it.:  14.9
      thresh= 4.429E-07 alpha_mix =  0.700 |ddv_scf|^2 =  1.883E-13

      iter #   6 total cpu time : 26110.1 secs   av.it.:  15.6
      thresh= 4.340E-08 alpha_mix =  0.700 |ddv_scf|^2 =  7.356E-15

     End of self-consistent calculation

     Convergence has been achieved 


     Representation #  45 mode #  45

     Self-consistent Calculation

      iter #   1 total cpu time : 26178.2 secs   av.it.:   3.0
      thresh= 1.000E-02 alpha_mix =  0.700 |ddv_scf|^2 =  1.137E-09

      iter #   2 total cpu time : 26266.5 secs   av.it.:  15.9
      thresh= 3.372E-06 alpha_mix =  0.700 |ddv_scf|^2 =  2.820E-10

      iter #   3 total cpu time : 26352.1 secs   av.it.:  15.0
      thresh= 1.679E-06 alpha_mix =  0.700 |ddv_scf|^2 =  1.600E-11

      iter #   4 total cpu time : 26437.8 secs   av.it.:  15.0
      thresh= 4.000E-07 alpha_mix =  0.700 |ddv_scf|^2 =  4.362E-13

      iter #   5 total cpu time : 26525.2 secs   av.it.:  15.6
      thresh= 6.604E-08 alpha_mix =  0.700 |ddv_scf|^2 =  2.206E-14

      iter #   6 total cpu time : 26612.2 secs   av.it.:  15.4
      thresh= 1.485E-08 alpha_mix =  0.700 |ddv_scf|^2 =  1.206E-15

     End of self-consistent calculation

     Convergence has been achieved 


     Representation #  46 mode #  46

     Self-consistent Calculation

      iter #   1 total cpu time : 26676.2 secs   av.it.:   3.0
      thresh= 1.000E-02 alpha_mix =  0.700 |ddv_scf|^2 =  2.486E-09

      iter #   2 total cpu time : 26764.7 secs   av.it.:  15.9
      thresh= 4.986E-06 alpha_mix =  0.700 |ddv_scf|^2 =  1.886E-09

      iter #   3 total cpu time : 26847.5 secs   av.it.:  14.9
      thresh= 4.343E-06 alpha_mix =  0.700 |ddv_scf|^2 =  5.089E-12

      iter #   4 total cpu time : 26936.5 secs   av.it.:  16.0
      thresh= 2.256E-07 alpha_mix =  0.700 |ddv_scf|^2 =  5.170E-13

      iter #   5 total cpu time : 27024.8 secs   av.it.:  15.9
      thresh= 7.190E-08 alpha_mix =  0.700 |ddv_scf|^2 =  8.234E-15

     End of self-consistent calculation

     Convergence has been achieved 


     Representation #  47 mode #  47

     Self-consistent Calculation

      iter #   1 total cpu time : 27090.2 secs   av.it.:   3.8
      thresh= 1.000E-02 alpha_mix =  0.700 |ddv_scf|^2 =  2.789E-09

      iter #   2 total cpu time : 27179.0 secs   av.it.:  15.8
      thresh= 5.281E-06 alpha_mix =  0.700 |ddv_scf|^2 =  2.171E-09

      iter #   3 total cpu time : 27261.4 secs   av.it.:  14.9
      thresh= 4.659E-06 alpha_mix =  0.700 |ddv_scf|^2 =  6.193E-12

      iter #   4 total cpu time : 27350.0 secs   av.it.:  15.9
      thresh= 2.489E-07 alpha_mix =  0.700 |ddv_scf|^2 =  5.133E-13

      iter #   5 total cpu time : 27437.4 secs   av.it.:  15.8
      thresh= 7.165E-08 alpha_mix =  0.700 |ddv_scf|^2 =  1.053E-14

      iter #   6 total cpu time : 27524.7 secs   av.it.:  15.9
      thresh= 1.026E-08 alpha_mix =  0.700 |ddv_scf|^2 =  9.722E-16

     End of self-consistent calculation

     Convergence has been achieved 


     Representation #  48 mode #  48

     Self-consistent Calculation

      iter #   1 total cpu time : 27586.5 secs   av.it.:   3.0
      thresh= 1.000E-02 alpha_mix =  0.700 |ddv_scf|^2 =  3.735E-10

      iter #   2 total cpu time : 27674.9 secs   av.it.:  15.9
      thresh= 1.933E-06 alpha_mix =  0.700 |ddv_scf|^2 =  2.006E-11

      iter #   3 total cpu time : 27764.6 secs   av.it.:  16.0
      thresh= 4.479E-07 alpha_mix =  0.700 |ddv_scf|^2 =  5.049E-12

      iter #   4 total cpu time : 27850.4 secs   av.it.:  15.1
      thresh= 2.247E-07 alpha_mix =  0.700 |ddv_scf|^2 =  3.553E-13

      iter #   5 total cpu time : 27935.7 secs   av.it.:  15.0
      thresh= 5.961E-08 alpha_mix =  0.700 |ddv_scf|^2 =  1.755E-14

      iter #   6 total cpu time : 28020.5 secs   av.it.:  15.0
      thresh= 1.325E-08 alpha_mix =  0.700 |ddv_scf|^2 =  5.419E-16

     End of self-consistent calculation

     Convergence has been achieved 


     Representation #  49 mode #  49

     Self-consistent Calculation

      iter #   1 total cpu time : 28083.4 secs   av.it.:   3.0
      thresh= 1.000E-02 alpha_mix =  0.700 |ddv_scf|^2 =  1.211E-09

      iter #   2 total cpu time : 28171.3 secs   av.it.:  15.9
      thresh= 3.480E-06 alpha_mix =  0.700 |ddv_scf|^2 =  6.660E-10

      iter #   3 total cpu time : 28255.9 secs   av.it.:  14.9
      thresh= 2.581E-06 alpha_mix =  0.700 |ddv_scf|^2 =  7.434E-12

      iter #   4 total cpu time : 28342.2 secs   av.it.:  15.4
      thresh= 2.727E-07 alpha_mix =  0.700 |ddv_scf|^2 =  4.788E-13

      iter #   5 total cpu time : 28429.7 secs   av.it.:  15.9
      thresh= 6.920E-08 alpha_mix =  0.700 |ddv_scf|^2 =  1.671E-14

      iter #   6 total cpu time : 28516.7 secs   av.it.:  15.9
      thresh= 1.293E-08 alpha_mix =  0.700 |ddv_scf|^2 =  7.811E-16

     End of self-consistent calculation

     Convergence has been achieved 


     Representation #  50 mode #  50

     Self-consistent Calculation

      iter #   1 total cpu time : 28586.4 secs   av.it.:   4.6
      thresh= 1.000E-02 alpha_mix =  0.700 |ddv_scf|^2 =  9.752E-09

      iter #   2 total cpu time : 28674.5 secs   av.it.:  15.9
      thresh= 9.875E-06 alpha_mix =  0.700 |ddv_scf|^2 =  3.812E-09

      iter #   3 total cpu time : 28758.0 secs   av.it.:  15.0
      thresh= 6.174E-06 alpha_mix =  0.700 |ddv_scf|^2 =  1.263E-10

      iter #   4 total cpu time : 28843.3 secs   av.it.:  15.0
      thresh= 1.124E-06 alpha_mix =  0.700 |ddv_scf|^2 =  2.640E-12

      iter #   5 total cpu time : 28930.2 secs   av.it.:  15.6
      thresh= 1.625E-07 alpha_mix =  0.700 |ddv_scf|^2 =  4.246E-13

      iter #   6 total cpu time : 29015.6 secs   av.it.:  15.1
      thresh= 6.516E-08 alpha_mix =  0.700 |ddv_scf|^2 =  1.743E-15

     End of self-consistent calculation

     Convergence has been achieved 


     Representation #  51 mode #  51

     Self-consistent Calculation

      iter #   1 total cpu time : 29097.7 secs   av.it.:   3.1
      thresh= 1.000E-02 alpha_mix =  0.700 |ddv_scf|^2 =  2.943E-09

      iter #   2 total cpu time : 29186.3 secs   av.it.:  15.9
      thresh= 5.425E-06 alpha_mix =  0.700 |ddv_scf|^2 =  2.279E-09

      iter #   3 total cpu time : 29269.0 secs   av.it.:  14.9
      thresh= 4.774E-06 alpha_mix =  0.700 |ddv_scf|^2 =  4.765E-12

      iter #   4 total cpu time : 29358.2 secs   av.it.:  16.0
      thresh= 2.183E-07 alpha_mix =  0.700 |ddv_scf|^2 =  9.758E-13

      iter #   5 total cpu time : 29445.0 secs   av.it.:  15.8
      thresh= 9.878E-08 alpha_mix =  0.700 |ddv_scf|^2 =  5.175E-14

      iter #   6 total cpu time : 29531.2 secs   av.it.:  15.4
      thresh= 2.275E-08 alpha_mix =  0.700 |ddv_scf|^2 =  2.648E-15

     End of self-consistent calculation

     Convergence has been achieved 


     Representation #  52 mode #  52

     Self-consistent Calculation

      iter #   1 total cpu time : 29594.8 secs   av.it.:   3.1
      thresh= 1.000E-02 alpha_mix =  0.700 |ddv_scf|^2 =  2.317E-09

      iter #   2 total cpu time : 29683.6 secs   av.it.:  15.9
      thresh= 4.814E-06 alpha_mix =  0.700 |ddv_scf|^2 =  1.215E-09

      iter #   3 total cpu time : 29767.0 secs   av.it.:  14.9
      thresh= 3.485E-06 alpha_mix =  0.700 |ddv_scf|^2 =  1.234E-11

      iter #   4 total cpu time : 29852.2 secs   av.it.:  15.0
      thresh= 3.513E-07 alpha_mix =  0.700 |ddv_scf|^2 =  1.144E-12

      iter #   5 total cpu time : 29937.7 secs   av.it.:  15.2
      thresh= 1.070E-07 alpha_mix =  0.700 |ddv_scf|^2 =  5.366E-14

      iter #   6 total cpu time : 30024.6 secs   av.it.:  15.1
      thresh= 2.316E-08 alpha_mix =  0.700 |ddv_scf|^2 =  1.486E-15

     End of self-consistent calculation

     Convergence has been achieved 


     Representation #  53 mode #  53

     Self-consistent Calculation

      iter #   1 total cpu time : 30089.0 secs   av.it.:   3.0
      thresh= 1.000E-02 alpha_mix =  0.700 |ddv_scf|^2 =  1.339E-09

      iter #   2 total cpu time : 30177.2 secs   av.it.:  15.9
      thresh= 3.660E-06 alpha_mix =  0.700 |ddv_scf|^2 =  5.868E-10

      iter #   3 total cpu time : 30261.5 secs   av.it.:  15.0
      thresh= 2.422E-06 alpha_mix =  0.700 |ddv_scf|^2 =  8.418E-12

      iter #   4 total cpu time : 30347.5 secs   av.it.:  15.4
      thresh= 2.901E-07 alpha_mix =  0.700 |ddv_scf|^2 =  1.082E-12

      iter #   5 total cpu time : 30432.1 secs   av.it.:  15.0
      thresh= 1.040E-07 alpha_mix =  0.700 |ddv_scf|^2 =  6.060E-14

      iter #   6 total cpu time : 30517.8 secs   av.it.:  15.3
      thresh= 2.462E-08 alpha_mix =  0.700 |ddv_scf|^2 =  1.742E-15

     End of self-consistent calculation

     Convergence has been achieved 


     Representation #  54 mode #  54

     Self-consistent Calculation

      iter #   1 total cpu time : 30582.1 secs   av.it.:   3.0
      thresh= 1.000E-02 alpha_mix =  0.700 |ddv_scf|^2 =  3.896E-09

      iter #   2 total cpu time : 30667.9 secs   av.it.:  15.4
      thresh= 6.242E-06 alpha_mix =  0.700 |ddv_scf|^2 =  2.666E-09

      iter #   3 total cpu time : 30749.2 secs   av.it.:  14.6
      thresh= 5.164E-06 alpha_mix =  0.700 |ddv_scf|^2 =  6.224E-12

      iter #   4 total cpu time : 30835.6 secs   av.it.:  15.7
      thresh= 2.495E-07 alpha_mix =  0.700 |ddv_scf|^2 =  7.389E-13

      iter #   5 total cpu time : 30921.1 secs   av.it.:  15.2
      thresh= 8.596E-08 alpha_mix =  0.700 |ddv_scf|^2 =  2.403E-14

      iter #   6 total cpu time : 31009.0 secs   av.it.:  15.9
      thresh= 1.550E-08 alpha_mix =  0.700 |ddv_scf|^2 =  2.099E-15

     End of self-consistent calculation

     Convergence has been achieved 


     Representation #  55 mode #  55

     Self-consistent Calculation

      iter #   1 total cpu time : 31071.7 secs   av.it.:   3.0
      thresh= 1.000E-02 alpha_mix =  0.700 |ddv_scf|^2 =  6.450E-10

      iter #   2 total cpu time : 31159.9 secs   av.it.:  16.0
      thresh= 2.540E-06 alpha_mix =  0.700 |ddv_scf|^2 =  1.450E-10

      iter #   3 total cpu time : 31246.0 secs   av.it.:  15.6
      thresh= 1.204E-06 alpha_mix =  0.700 |ddv_scf|^2 =  7.017E-12

      iter #   4 total cpu time : 31334.2 secs   av.it.:  15.4
      thresh= 2.649E-07 alpha_mix =  0.700 |ddv_scf|^2 =  1.674E-13

      iter #   5 total cpu time : 31422.2 secs   av.it.:  15.9
      thresh= 4.091E-08 alpha_mix =  0.700 |ddv_scf|^2 =  2.861E-14

      iter #   6 total cpu time : 31506.3 secs   av.it.:  15.0
      thresh= 1.691E-08 alpha_mix =  0.700 |ddv_scf|^2 =  1.728E-15

     End of self-consistent calculation

     Convergence has been achieved 


     Representation #  56 mode #  56

     Self-consistent Calculation

      iter #   1 total cpu time : 31586.3 secs   av.it.:   6.7
      thresh= 1.000E-02 alpha_mix =  0.700 |ddv_scf|^2 =  2.137E-07

      iter #   2 total cpu time : 31671.7 secs   av.it.:  15.1
      thresh= 4.623E-05 alpha_mix =  0.700 |ddv_scf|^2 =  1.668E-07

      iter #   3 total cpu time : 31753.6 secs   av.it.:  14.4
      thresh= 4.085E-05 alpha_mix =  0.700 |ddv_scf|^2 =  1.341E-10

      iter #   4 total cpu time : 31840.8 secs   av.it.:  15.7
      thresh= 1.158E-06 alpha_mix =  0.700 |ddv_scf|^2 =  2.168E-11

      iter #   5 total cpu time : 31926.9 secs   av.it.:  15.6
      thresh= 4.657E-07 alpha_mix =  0.700 |ddv_scf|^2 =  1.090E-12

      iter #   6 total cpu time : 32013.4 secs   av.it.:  15.5
      thresh= 1.044E-07 alpha_mix =  0.700 |ddv_scf|^2 =  2.715E-14

      iter #   7 total cpu time : 32100.8 secs   av.it.:  15.6
      thresh= 1.648E-08 alpha_mix =  0.700 |ddv_scf|^2 =  2.139E-15

     End of self-consistent calculation

     Convergence has been achieved 


     Representation #  57 mode #  57

     Self-consistent Calculation

      iter #   1 total cpu time : 32176.7 secs   av.it.:   5.0
      thresh= 1.000E-02 alpha_mix =  0.700 |ddv_scf|^2 =  3.412E-08

      iter #   2 total cpu time : 32264.4 secs   av.it.:  15.3
      thresh= 1.847E-05 alpha_mix =  0.700 |ddv_scf|^2 =  2.332E-08

      iter #   3 total cpu time : 32347.4 secs   av.it.:  14.6
      thresh= 1.527E-05 alpha_mix =  0.700 |ddv_scf|^2 =  5.507E-11

      iter #   4 total cpu time : 32435.2 secs   av.it.:  15.9
      thresh= 7.421E-07 alpha_mix =  0.700 |ddv_scf|^2 =  5.236E-12

      iter #   5 total cpu time : 32522.2 secs   av.it.:  15.6
      thresh= 2.288E-07 alpha_mix =  0.700 |ddv_scf|^2 =  8.540E-13

      iter #   6 total cpu time : 32609.1 secs   av.it.:  15.4
      thresh= 9.241E-08 alpha_mix =  0.700 |ddv_scf|^2 =  6.102E-15

     End of self-consistent calculation

     Convergence has been achieved 


     Representation #  58 mode #  58

     Self-consistent Calculation

      iter #   1 total cpu time : 32689.1 secs   av.it.:   3.0
      thresh= 1.000E-02 alpha_mix =  0.700 |ddv_scf|^2 =  8.626E-10

      iter #   2 total cpu time : 32776.7 secs   av.it.:  15.7
      thresh= 2.937E-06 alpha_mix =  0.700 |ddv_scf|^2 =  3.747E-10

      iter #   3 total cpu time : 32860.4 secs   av.it.:  14.9
      thresh= 1.936E-06 alpha_mix =  0.700 |ddv_scf|^2 =  1.136E-11

      iter #   4 total cpu time : 32945.1 secs   av.it.:  15.0
      thresh= 3.370E-07 alpha_mix =  0.700 |ddv_scf|^2 =  3.534E-13

      iter #   5 total cpu time : 33031.5 secs   av.it.:  15.5
      thresh= 5.945E-08 alpha_mix =  0.700 |ddv_scf|^2 =  1.862E-14

      iter #   6 total cpu time : 33118.5 secs   av.it.:  15.6
      thresh= 1.365E-08 alpha_mix =  0.700 |ddv_scf|^2 =  1.579E-15

     End of self-consistent calculation

     Convergence has been achieved 


     Representation #  59 mode #  59

     Self-consistent Calculation

      iter #   1 total cpu time : 33181.7 secs   av.it.:   3.0
      thresh= 1.000E-02 alpha_mix =  0.700 |ddv_scf|^2 =  1.545E-09

      iter #   2 total cpu time : 33269.8 secs   av.it.:  15.9
      thresh= 3.931E-06 alpha_mix =  0.700 |ddv_scf|^2 =  7.196E-10

      iter #   3 total cpu time : 33354.4 secs   av.it.:  14.9
      thresh= 2.683E-06 alpha_mix =  0.700 |ddv_scf|^2 =  1.146E-11

      iter #   4 total cpu time : 33440.5 secs   av.it.:  15.0
      thresh= 3.386E-07 alpha_mix =  0.700 |ddv_scf|^2 =  1.072E-12

      iter #   5 total cpu time : 33526.8 secs   av.it.:  15.1
      thresh= 1.035E-07 alpha_mix =  0.700 |ddv_scf|^2 =  4.868E-14

      iter #   6 total cpu time : 33613.2 secs   av.it.:  15.2
      thresh= 2.206E-08 alpha_mix =  0.700 |ddv_scf|^2 =  1.698E-15

     End of self-consistent calculation

     Convergence has been achieved 


     Representation #  60 mode #  60

     Self-consistent Calculation

      iter #   1 total cpu time : 33678.0 secs   av.it.:   3.0
      thresh= 1.000E-02 alpha_mix =  0.700 |ddv_scf|^2 =  2.149E-09

      iter #   2 total cpu time : 33768.4 secs   av.it.:  15.9
      thresh= 4.636E-06 alpha_mix =  0.700 |ddv_scf|^2 =  1.205E-09

      iter #   3 total cpu time : 33854.5 secs   av.it.:  14.9
      thresh= 3.471E-06 alpha_mix =  0.700 |ddv_scf|^2 =  5.389E-12

      iter #   4 total cpu time : 33943.2 secs   av.it.:  15.9
      thresh= 2.321E-07 alpha_mix =  0.700 |ddv_scf|^2 =  1.613E-12

      iter #   5 total cpu time : 34029.5 secs   av.it.:  15.0
      thresh= 1.270E-07 alpha_mix =  0.700 |ddv_scf|^2 =  4.582E-14

      iter #   6 total cpu time : 34118.1 secs   av.it.:  15.8
      thresh= 2.141E-08 alpha_mix =  0.700 |ddv_scf|^2 =  2.241E-15

     End of self-consistent calculation

     Convergence has been achieved 


     Representation #  61 mode #  61

     Self-consistent Calculation

      iter #   1 total cpu time : 34182.6 secs   av.it.:   3.2
      thresh= 1.000E-02 alpha_mix =  0.700 |ddv_scf|^2 =  5.555E-09

      iter #   2 total cpu time : 34268.4 secs   av.it.:  15.3
      thresh= 7.453E-06 alpha_mix =  0.700 |ddv_scf|^2 =  3.464E-09

      iter #   3 total cpu time : 34351.2 secs   av.it.:  14.8
      thresh= 5.885E-06 alpha_mix =  0.700 |ddv_scf|^2 =  1.355E-11

      iter #   4 total cpu time : 34436.4 secs   av.it.:  15.0
      thresh= 3.682E-07 alpha_mix =  0.700 |ddv_scf|^2 =  1.174E-12

      iter #   5 total cpu time : 34523.1 secs   av.it.:  15.3
      thresh= 1.083E-07 alpha_mix =  0.700 |ddv_scf|^2 =  7.929E-14

      iter #   6 total cpu time : 34608.2 secs   av.it.:  15.0
      thresh= 2.816E-08 alpha_mix =  0.700 |ddv_scf|^2 =  1.571E-15

     End of self-consistent calculation

     Convergence has been achieved 


     Representation #  62 mode #  62

     Self-consistent Calculation

      iter #   1 total cpu time : 34678.9 secs   av.it.:   4.5
[...]

      iter #   4 total cpu time :******** secs   av.it.:  15.0
      thresh= 6.386E-07 alpha_mix =  0.700 |ddv_scf|^2 =  3.468E-12

      iter #   5 total cpu time :******** secs   av.it.:  15.0
      thresh= 1.862E-07 alpha_mix =  0.700 |ddv_scf|^2 =  1.722E-13

      iter #   6 total cpu time :******** secs   av.it.:  15.3
      thresh= 4.150E-08 alpha_mix =  0.700 |ddv_scf|^2 =  1.417E-14

      iter #   7 total cpu time :******** secs   av.it.:  15.8
      thresh= 1.190E-08 alpha_mix =  0.700 |ddv_scf|^2 =  1.334E-15

     End of self-consistent calculation

     Convergence has been achieved 


     Representation #  64 mode #  64

     Self-consistent Calculation

      iter #   1 total cpu time :******** secs   av.it.:   3.2
      thresh= 1.000E-02 alpha_mix =  0.700 |ddv_scf|^2 =  4.651E-09

      iter #   2 total cpu time :******** secs   av.it.:  16.0
      thresh= 6.820E-06 alpha_mix =  0.700 |ddv_scf|^2 =  3.416E-09

      iter #   3 total cpu time :******** secs   av.it.:  15.0
      thresh= 5.845E-06 alpha_mix =  0.700 |ddv_scf|^2 =  3.283E-11

      iter #   4 total cpu time :******** secs   av.it.:  15.0
      thresh= 5.729E-07 alpha_mix =  0.700 |ddv_scf|^2 =  4.471E-12

      iter #   5 total cpu time :******** secs   av.it.:  15.0
      thresh= 2.115E-07 alpha_mix =  0.700 |ddv_scf|^2 =  1.700E-13

      iter #   6 total cpu time :******** secs   av.it.:  15.4
      thresh= 4.124E-08 alpha_mix =  0.700 |ddv_scf|^2 =  1.717E-14

      iter #   7 total cpu time :******** secs   av.it.:  15.4
      thresh= 1.310E-08 alpha_mix =  0.700 |ddv_scf|^2 =  2.068E-15

     End of self-consistent calculation

     Convergence has been achieved 


     Representation #  65 mode #  65

     Self-consistent Calculation

      iter #   1 total cpu time :******** secs   av.it.:   3.0
      thresh= 1.000E-02 alpha_mix =  0.700 |ddv_scf|^2 =  4.425E-09

      iter #   2 total cpu time :******** secs   av.it.:  15.2
      thresh= 6.652E-06 alpha_mix =  0.700 |ddv_scf|^2 =  4.202E-09

      iter #   3 total cpu time :******** secs   av.it.:  14.0
      thresh= 6.482E-06 alpha_mix =  0.700 |ddv_scf|^2 =  2.992E-11

      iter #   4 total cpu time :******** secs   av.it.:  15.1
      thresh= 5.470E-07 alpha_mix =  0.700 |ddv_scf|^2 =  2.156E-12

      iter #   5 total cpu time :******** secs   av.it.:  15.4
      thresh= 1.468E-07 alpha_mix =  0.700 |ddv_scf|^2 =  1.385E-13

      iter #   6 total cpu time :******** secs   av.it.:  15.0
      thresh= 3.722E-08 alpha_mix =  0.700 |ddv_scf|^2 =  1.042E-14

      iter #   7 total cpu time :******** secs   av.it.:  15.4
      thresh= 1.021E-08 alpha_mix =  0.700 |ddv_scf|^2 =  8.190E-16

     End of self-consistent calculation

     Convergence has been achieved 


     Representation #  66 mode #  66

     Self-consistent Calculation

      iter #   1 total cpu time :******** secs   av.it.:   3.0
      thresh= 1.000E-02 alpha_mix =  0.700 |ddv_scf|^2 =  3.756E-09

      iter #   2 total cpu time :******** secs   av.it.:  16.0
      thresh= 6.128E-06 alpha_mix =  0.700 |ddv_scf|^2 =  2.505E-09

      iter #   3 total cpu time :******** secs   av.it.:  15.0
      thresh= 5.005E-06 alpha_mix =  0.700 |ddv_scf|^2 =  4.980E-11

      iter #   4 total cpu time :******** secs   av.it.:  15.0
      thresh= 7.057E-07 alpha_mix =  0.700 |ddv_scf|^2 =  2.993E-12

      iter #   5 total cpu time :******** secs   av.it.:  15.0
      thresh= 1.730E-07 alpha_mix =  0.700 |ddv_scf|^2 =  1.072E-13

      iter #   6 total cpu time :******** secs   av.it.:  15.8
      thresh= 3.274E-08 alpha_mix =  0.700 |ddv_scf|^2 =  1.203E-14

      iter #   7 total cpu time :******** secs   av.it.:  15.3
      thresh= 1.097E-08 alpha_mix =  0.700 |ddv_scf|^2 =  9.988E-16

     End of self-consistent calculation

     Convergence has been achieved 

     Number of q in the star =    4
     List of q in the star:
          1   0.333333333   0.327455185   0.487985361
          2   0.333333333  -0.327455185  -0.487985361
          3  -0.333333333   0.327455185  -0.487985361
          4  -0.333333333  -0.327455185   0.487985361
     In addition there is the -q list: 
          1  -0.333333333  -0.327455185  -0.487985361
          2  -0.333333333   0.327455185   0.487985361
          3   0.333333333  -0.327455185   0.487985361
          4   0.333333333   0.327455185  -0.487985361

     Diagonalizing the dynamical matrix

     q = (    0.333333333   0.327455185   0.487985361 ) 

 **************************************************************************
     freq (    1) =       1.253484 [THz] =      41.811715 [cm-1]
     freq (    2) =       1.307854 [THz] =      43.625326 [cm-1]
     freq (    3) =       1.629651 [THz] =      54.359301 [cm-1]
     freq (    4) =       1.887350 [THz] =      62.955215 [cm-1]
     freq (    5) =       2.875363 [THz] =      95.911782 [cm-1]
     freq (    6) =       2.969202 [THz] =      99.041922 [cm-1]
     freq (    7) =       4.759077 [THz] =     158.745736 [cm-1]
     freq (    8) =       4.847742 [THz] =     161.703281 [cm-1]
     freq (    9) =       5.422495 [THz] =     180.874960 [cm-1]
     freq (   10) =       5.758787 [THz] =     192.092445 [cm-1]
     freq (   11) =       6.099901 [THz] =     203.470800 [cm-1]
     freq (   12) =       6.177375 [THz] =     206.055060 [cm-1]
     freq (   13) =       6.438457 [THz] =     214.763822 [cm-1]
     freq (   14) =       6.743282 [THz] =     224.931674 [cm-1]
     freq (   15) =       7.212953 [THz] =     240.598217 [cm-1]
     freq (   16) =       7.308844 [THz] =     243.796796 [cm-1]
     freq (   17) =       8.246370 [THz] =     275.069301 [cm-1]
     freq (   18) =       8.339975 [THz] =     278.191607 [cm-1]
     freq (   19) =       8.503737 [THz] =     283.654118 [cm-1]
     freq (   20) =       8.528368 [THz] =     284.475730 [cm-1]
     freq (   21) =       9.152188 [THz] =     305.284118 [cm-1]
     freq (   22) =       9.241811 [THz] =     308.273640 [cm-1]
     freq (   23) =       9.291387 [THz] =     309.927313 [cm-1]
     freq (   24) =       9.574341 [THz] =     319.365625 [cm-1]
     freq (   25) =      10.051575 [THz] =     335.284465 [cm-1]
     freq (   26) =      10.214358 [THz] =     340.714309 [cm-1]
     freq (   27) =      12.820012 [THz] =     427.629581 [cm-1]
     freq (   28) =      12.886475 [THz] =     429.846529 [cm-1]
     freq (   29) =      12.951563 [THz] =     432.017643 [cm-1]
     freq (   30) =      13.034280 [THz] =     434.776793 [cm-1]
     freq (   31) =      30.762570 [THz] =    1026.128880 [cm-1]
     freq (   32) =      30.773025 [THz] =    1026.477608 [cm-1]
     freq (   33) =      30.935404 [THz] =    1031.894013 [cm-1]
     freq (   34) =      30.956841 [THz] =    1032.609082 [cm-1]
     freq (   35) =      31.833315 [THz] =    1061.845099 [cm-1]
     freq (   36) =      31.855302 [THz] =    1062.578509 [cm-1]
     freq (   37) =      31.892196 [THz] =    1063.809165 [cm-1]
     freq (   38) =      31.947226 [THz] =    1065.644768 [cm-1]
     freq (   39) =      32.250386 [THz] =    1075.757086 [cm-1]
     freq (   40) =      32.277355 [THz] =    1076.656676 [cm-1]
     freq (   41) =      32.360162 [THz] =    1079.418803 [cm-1]
     freq (   42) =      32.418642 [THz] =    1081.369488 [cm-1]
     freq (   43) =      35.840538 [THz] =    1195.511648 [cm-1]
     freq (   44) =      35.870068 [THz] =    1196.496676 [cm-1]
     freq (   45) =      36.006691 [THz] =    1201.053944 [cm-1]
     freq (   46) =      36.036405 [THz] =    1202.045090 [cm-1]
     freq (   47) =      36.116105 [THz] =    1204.703586 [cm-1]
     freq (   48) =      36.132414 [THz] =    1205.247608 [cm-1]
     freq (   49) =      36.166348 [THz] =    1206.379502 [cm-1]
     freq (   50) =      36.183061 [THz] =    1206.936994 [cm-1]
     freq (   51) =      68.223796 [THz] =    2275.700886 [cm-1]
     freq (   52) =      68.244130 [THz] =    2276.379164 [cm-1]
     freq (   53) =      68.268029 [THz] =    2277.176344 [cm-1]
     freq (   54) =      68.305712 [THz] =    2278.433307 [cm-1]
     freq (   55) =      70.101257 [THz] =    2338.326233 [cm-1]
     freq (   56) =      70.110768 [THz] =    2338.643486 [cm-1]
     freq (   57) =      70.250080 [THz] =    2343.290433 [cm-1]
     freq (   58) =      70.253125 [THz] =    2343.391995 [cm-1]
     freq (   59) =      70.804472 [THz] =    2361.782959 [cm-1]
     freq (   60) =      70.813513 [THz] =    2362.084549 [cm-1]
     freq (   61) =      70.900293 [THz] =    2364.979209 [cm-1]
     freq (   62) =      70.929504 [THz] =    2365.953583 [cm-1]
     freq (   63) =      71.412530 [THz] =    2382.065609 [cm-1]
     freq (   64) =      71.428107 [THz] =    2382.585180 [cm-1]
     freq (   65) =      71.508673 [THz] =    2385.272595 [cm-1]
     freq (   66) =      71.549797 [THz] =    2386.644346 [cm-1]
 **************************************************************************

     Mode symmetry, C_1 (1)     point group:

     freq (   1-   1) =         41.8  [cm-1]   --> A                  
     freq (   2-   2) =         43.6  [cm-1]   --> A                  
     freq (   3-   3) =         54.4  [cm-1]   --> A                  
     freq (   4-   4) =         63.0  [cm-1]   --> A                  
     freq (   5-   5) =         95.9  [cm-1]   --> A                  
     freq (   6-   6) =         99.0  [cm-1]   --> A                  
     freq (   7-   7) =        158.7  [cm-1]   --> A                  
     freq (   8-   8) =        161.7  [cm-1]   --> A                  
     freq (   9-   9) =        180.9  [cm-1]   --> A                  
     freq (  10-  10) =        192.1  [cm-1]   --> A                  
     freq (  11-  11) =        203.5  [cm-1]   --> A                  
     freq (  12-  12) =        206.1  [cm-1]   --> A                  
     freq (  13-  13) =        214.8  [cm-1]   --> A                  
     freq (  14-  14) =        224.9  [cm-1]   --> A                  
     freq (  15-  15) =        240.6  [cm-1]   --> A                  
     freq (  16-  16) =        243.8  [cm-1]   --> A                  
     freq (  17-  17) =        275.1  [cm-1]   --> A                  
     freq (  18-  18) =        278.2  [cm-1]   --> A                  
     freq (  19-  19) =        283.7  [cm-1]   --> A                  
     freq (  20-  20) =        284.5  [cm-1]   --> A                  
     freq (  21-  21) =        305.3  [cm-1]   --> A                  
     freq (  22-  22) =        308.3  [cm-1]   --> A                  
     freq (  23-  23) =        309.9  [cm-1]   --> A                  
     freq (  24-  24) =        319.4  [cm-1]   --> A                  
     freq (  25-  25) =        335.3  [cm-1]   --> A                  
     freq (  26-  26) =        340.7  [cm-1]   --> A                  
     freq (  27-  27) =        427.6  [cm-1]   --> A                  
     freq (  28-  28) =        429.8  [cm-1]   --> A                  
     freq (  29-  29) =        432.0  [cm-1]   --> A                  
     freq (  30-  30) =        434.8  [cm-1]   --> A                  
     freq (  31-  31) =       1026.1  [cm-1]   --> A                  
     freq (  32-  32) =       1026.5  [cm-1]   --> A                  
     freq (  33-  33) =       1031.9  [cm-1]   --> A                  
     freq (  34-  34) =       1032.6  [cm-1]   --> A                  
     freq (  35-  35) =       1061.8  [cm-1]   --> A                  
     freq (  36-  36) =       1062.6  [cm-1]   --> A                  
     freq (  37-  37) =       1063.8  [cm-1]   --> A                  
     freq (  38-  38) =       1065.6  [cm-1]   --> A                  
     freq (  39-  39) =       1075.8  [cm-1]   --> A                  
     freq (  40-  40) =       1076.7  [cm-1]   --> A                  
     freq (  41-  41) =       1079.4  [cm-1]   --> A                  
     freq (  42-  42) =       1081.4  [cm-1]   --> A                  
     freq (  43-  43) =       1195.5  [cm-1]   --> A                  
     freq (  44-  44) =       1196.5  [cm-1]   --> A                  
     freq (  45-  45) =       1201.1  [cm-1]   --> A                  
     freq (  46-  46) =       1202.0  [cm-1]   --> A                  
     freq (  47-  47) =       1204.7  [cm-1]   --> A                  
     freq (  48-  48) =       1205.2  [cm-1]   --> A                  
     freq (  49-  49) =       1206.4  [cm-1]   --> A                  
     freq (  50-  50) =       1206.9  [cm-1]   --> A                  
     freq (  51-  51) =       2275.7  [cm-1]   --> A                  
     freq (  52-  52) =       2276.4  [cm-1]   --> A                  
     freq (  53-  53) =       2277.2  [cm-1]   --> A                  
     freq (  54-  54) =       2278.4  [cm-1]   --> A                  
     freq (  55-  55) =       2338.3  [cm-1]   --> A                  
     freq (  56-  56) =       2338.6  [cm-1]   --> A                  
     freq (  57-  57) =       2343.3  [cm-1]   --> A                  
     freq (  58-  58) =       2343.4  [cm-1]   --> A                  
     freq (  59-  59) =       2361.8  [cm-1]   --> A                  
     freq (  60-  60) =       2362.1  [cm-1]   --> A                  
     freq (  61-  61) =       2365.0  [cm-1]   --> A                  
     freq (  62-  62) =       2366.0  [cm-1]   --> A                  
     freq (  63-  63) =       2382.1  [cm-1]   --> A                  
     freq (  64-  64) =       2382.6  [cm-1]   --> A                  
     freq (  65-  65) =       2385.3  [cm-1]   --> A                  
     freq (  66-  66) =       2386.6  [cm-1]   --> A                  

     init_run     :      8.60s CPU      8.91s WALL (       7 calls)
     electrons    :   5160.01s CPU   5197.16s WALL (       7 calls)

     Called by init_run:
     wfcinit      :      0.00s CPU      0.00s WALL (       7 calls)
     potinit      :      1.01s CPU      1.11s WALL (       7 calls)
     hinit0       :      1.12s CPU      1.17s WALL (       7 calls)

     Called by electrons:
     c_bands      :   5160.01s CPU   5197.16s WALL (       7 calls)
     v_of_rho     :      0.95s CPU      1.00s WALL (       8 calls)
     newd         :      1.47s CPU      1.52s WALL (       8 calls)

     Called by c_bands:
     init_us_2    :   1961.40s CPU   2157.20s WALL (  442489 calls)
     cegterg      :   4753.18s CPU   4784.85s WALL (    2780 calls)

     Called by *egterg:
     cdiaghg      :    143.08s CPU    143.84s WALL (   31929 calls)
     h_psi        : 541743.62s CPU 546382.46s WALL ( 5594255 calls)
     s_psi        : 213686.88s CPU 214706.26s WALL (11493549 calls)
     g_psi        :     10.22s CPU     10.28s WALL (   30539 calls)

     Called by h_psi:
     h_psi:calbec :  91301.19s CPU  91819.38s WALL ( 5594255 calls)
     vloc_psi     : 344682.81s CPU 348305.40s WALL ( 5594255 calls)
     add_vuspsi   : 103726.79s CPU 104228.08s WALL ( 5594255 calls)

     General routines
     calbec       : 201078.69s CPU 202196.29s WALL (12167093 calls)
     fft          :   1389.66s CPU   1456.54s WALL (  101647 calls)
     ffts         :   6336.90s CPU   6377.29s WALL (   92728 calls)
     fftw         : 347884.42s CPU 351775.50s WALL (******** calls)
     interpolate  :     67.13s CPU     77.68s WALL (    7918 calls)
     davcio       :    829.19s CPU   1252.41s WALL ( 1896664 calls)

     Parallel routines

     PHONON       :  11d15h49m CPU  11d18h24m WALL

     INITIALIZATION: 
     phq_setup    :      2.76s CPU      3.38s WALL (       8 calls)
     phq_init     :   4314.51s CPU   4354.32s WALL (       8 calls)

     phq_init     :   4314.51s CPU   4354.32s WALL (       8 calls)
     set_drhoc    :      0.09s CPU      0.10s WALL (      24 calls)
     init_vloc    :      0.42s CPU      0.43s WALL (       8 calls)
     init_us_1    :      0.15s CPU      0.21s WALL (       8 calls)
     init_us_2    :   1961.40s CPU   2157.20s WALL (  442489 calls)
     newd         :      1.47s CPU      1.52s WALL (       8 calls)
     dvanqq       :    175.14s CPU    177.11s WALL (       8 calls)
     drho         :   3870.17s CPU   3906.42s WALL (       8 calls)
     drhous       :   3527.56s CPU   3558.18s WALL (       8 calls)
     nldyntot     :     82.96s CPU     83.05s WALL (       8 calls)

     DYNAMICAL MATRIX:
     dynmat0      :    208.45s CPU    209.27s WALL (       8 calls)
     dynmat_us    :    160.82s CPU    161.51s WALL (       8 calls)
     addusdynmat  :      0.02s CPU      0.05s WALL (       8 calls)
     d2ionq       :     45.19s CPU     45.23s WALL (       8 calls)
     dynmatcc     :      2.28s CPU      2.37s WALL (       8 calls)
     phqscf       : 993242.34s CPU *********s WALL (       8 calls)
     dynmatrix    :      0.73s CPU      0.88s WALL (       8 calls)

     phqscf       : 993242.34s CPU *********s WALL (       8 calls)
     solve_linter : 987048.20s CPU 996108.40s WALL (     528 calls)
     sth_kernel   : 960494.26s CPU 968636.36s WALL (    3672 calls)
     h_prec       :    959.84s CPU    967.95s WALL (  339289 calls)
     apply_dpot_b :  20948.91s CPU  21382.71s WALL (  291853 calls)
     ortho        :  15653.78s CPU  15772.63s WALL (  339667 calls)
     cgsolve      : 884519.17s CPU 891010.15s WALL (  339667 calls)
     incdrhoscf   :  35420.86s CPU  36008.56s WALL (  339667 calls)
                                        0.00s GPU  (  339667 calls)
     addusddens   :   1300.09s CPU   1317.85s WALL (    4193 calls)
     dv_of_drho   :    361.83s CPU    397.45s WALL (    3689 calls)
     mix_pot      :     39.45s CPU    106.59s WALL (    3672 calls)
     drhodv       :   4573.60s CPU   4620.05s WALL (     528 calls)
     psymdvscf    :   1320.93s CPU   1377.87s WALL (    1740 calls)
     newdq        :   1598.36s CPU   1608.33s WALL (    3672 calls)
     adddvscf     :   1034.36s CPU   1052.86s WALL (  291853 calls)
     drhodvus     :     23.59s CPU     46.04s WALL (     528 calls)

     dvqpsi_us    :  23637.56s CPU  23736.94s WALL (   49434 calls)
                                        0.00s GPU  (   49434 calls)
     dvqpsi_us_on :  13879.56s CPU  13909.43s WALL (   49434 calls)

     add_vuspsi   : 103726.79s CPU 104228.08s WALL ( 5594255 calls)
     addusdbec    :   7307.68s CPU   7349.57s WALL (  387319 calls)

     drhodvus     :     23.59s CPU     46.04s WALL (     528 calls)

      General routines
     calbec       : 201078.69s CPU 202196.29s WALL (12167093 calls)
     fft          :   1389.66s CPU   1456.54s WALL (  101647 calls)
     ffts         :   6336.90s CPU   6377.29s WALL (   92728 calls)
     fftw         : 347884.42s CPU 351775.50s WALL (******** calls)
     davcio       :    829.19s CPU   1252.41s WALL ( 1896664 calls)
     write_rec    :     70.37s CPU    683.29s WALL (    4200 calls)

      Additional routines
     ch_psi       : 873370.23s CPU 879702.99s WALL ( 5559546 calls)
     last         : 227813.98s CPU 229041.26s WALL ( 5559546 calls)
     Hesh         :   1417.90s CPU   1433.85s WALL ( 5559546 calls)
     ch_psi_all_k : 226307.78s CPU 227527.49s WALL ( 5559546 calls)
                                        0.00s GPU  ( 5559546 calls)
     ch_psi_calbe :  90752.42s CPU  91162.79s WALL ( 5559546 calls)
                                        0.00s GPU  ( 5559546 calls)
     h_psi_bgrp   : 541792.65s CPU 546421.74s WALL ( 5594255 calls)
     h_psi        : 541743.62s CPU 546382.46s WALL ( 5594255 calls)
     h_psi:pot    : 539839.25s CPU 544444.97s WALL ( 5594255 calls)
     h_psi:calbec :  91301.19s CPU  91819.38s WALL ( 5594255 calls)
     s_psi_bgrp   : 216183.04s CPU 217169.10s WALL (11493549 calls)
     s_psi        : 213686.88s CPU 214706.26s WALL (11493549 calls)


     PHONON       :  11d15h49m CPU  11d18h24m WALL


   This run was terminated on:   6:46: 5  24Jul2024            

=------------------------------------------------------------------------------=
   JOB DONE.
=------------------------------------------------------------------------------=
