
     Program PWSCF v.7.3.1 starts on 12Jul2024 at 12:17:15 

     This program is part of the open-source Quantum ESPRESSO suite
     for quantum simulation of materials; please cite
         "P. Giannozzi et al., J. Phys.:Condens. Matter 21 395502 (2009);
         "P. Giannozzi et al., J. Phys.:Condens. Matter 29 465901 (2017);
         "P. Giannozzi et al., J. Chem. Phys. 152 154105 (2020);
          URL http://www.quantum-espresso.org", 
     in publications or presentations arising from this work. More details at
     http://www.quantum-espresso.org/quote

     Parallel version (MPI), running on    24 processors

     MPI processes distributed on     1 nodes
     82676 MiB available memory on the printing compute node when the environment starts

     Waiting for input...
     Reading input from standard input

     Current dimensions of program PWSCF are:
     Max number of different atomic species (ntypx) = 10
     Max number of k-points (npk) =  40000
     Max angular momentum in pseudopotentials (lmaxx) =  4

     R & G space division:  proc/nbgrp/npool/nimage =      24
     Subspace diagonalization in iterative solution of the eigenvalue problem:
     a serial algorithm will be used


     Parallelization info
     --------------------
     sticks:   dense  smooth     PW     G-vecs:    dense   smooth      PW
     Min         443     221     60                23289     8231    1156
     Max         444     222     61                23292     8234    1158
     Sum       10639    5319   1441               558953   197593   27777

     Using Slab Decomposition


     Title: 
     pre-ph                                                                     


     bravais-lattice index     =            8
     lattice parameter (alat)  =      12.8129  a.u.
     unit-cell volume          =    1462.6445 (a.u.)^3
     number of atoms/cell      =           22
     number of atomic types    =            3
     number of electrons       =        48.00
     number of Kohn-Sham states=           24
     kinetic-energy cutoff     =     100.0000  Ry
     charge density cutoff     =     800.0000  Ry
     scf convergence threshold =      1.0E-10
     mixing beta               =       0.7000
     number of iterations used =            8  plain     mixing
     Exchange-correlation= PBESOL
                           (   1   4  10   8   0   0   0)

     celldm(1)=  12.812877  celldm(2)=   1.017951  celldm(3)=   0.683081
     celldm(4)=   0.000000  celldm(5)=   0.000000  celldm(6)=   0.000000

     crystal axes: (cart. coord. in units of alat)
               a(1) = (   1.000000   0.000000   0.000000 )  
               a(2) = (   0.000000   1.017951   0.000000 )  
               a(3) = (   0.000000   0.000000   0.683081 )  

     reciprocal axes: (cart. coord. in units 2 pi/alat)
               b(1) = (  1.000000  0.000000  0.000000 )  
               b(2) = (  0.000000  0.982366  0.000000 )  
               b(3) = (  0.000000  0.000000  1.463956 )  


     PseudoPot. # 1 for B  read from file:
     /home/mehlhorn/pseudos/b_pbesol_v1.4.uspp.F.UPF
     MD5 check sum: 369b69bef2c3aeed4453bd8b804fd6a8
     Pseudo is Ultrasoft + core correction, Zval =  3.0
     Generated by new atomic code, or converted to UPF format
     Using radial grid of  781 points,  4 beta functions with: 
                l(1) =   0
                l(2) =   0
                l(3) =   1
                l(4) =   1
     Q(r) pseudized with  8 coefficients,  rinner =    1.100   1.100   1.100


     PseudoPot. # 2 for Ba read from file:
     /home/mehlhorn/pseudos/Ba.nc.z_10.oncvpsp4.dojo.v4-sp.upf
     MD5 check sum: c10ed334bb677c0554edec7181ce9143
     Pseudo is Norm-conserving + core correction, Zval = 10.0
     Generated using ONCVPSP code by D. R. Hamann
     Using radial grid of 1938 points,  8 beta functions with: 
                l(1) =   0
                l(2) =   0
                l(3) =   1
                l(4) =   1
                l(5) =   2
                l(6) =   2
                l(7) =   3
                l(8) =   3

     PseudoPot. # 3 for H  read from file:
     /home/mehlhorn/pseudos/H_ONCV_PBEsol-1.0.upf
     MD5 check sum: 398ef8f67c0a7342c05c87c5e19ea467
     Pseudo is Norm-conserving, Zval =  1.0
     Generated using ONCVPSP code by D. R. Hamann
     Using radial grid of 1180 points,  2 beta functions with: 
                l(1) =   0
                l(2) =   0

     atomic species   valence    mass     pseudopotential
     B                 3.00    10.81100     B ( 1.00)
     Ba               10.00   137.32700     Ba( 1.00)
     H                 1.00     1.00794     H ( 1.00)

      4 Sym. Ops. (no inversion) found ( 2 have fractional translation)



   Cartesian axes

     site n.     atom                  positions (alat units)
         1        Ba     tau(   1) = (   0.5000000   0.5089755   0.3415515  )
         2        Ba     tau(   2) = (   0.0000000   0.0000000   0.6830694  )
         3        B      tau(   3) = (   0.6141967   0.2465582  -0.0000039  )
         4        B      tau(   4) = (   0.3858033   0.7713928  -0.0000039  )
         5        B      tau(   5) = (   0.1141967   0.2624173   0.3415442  )
         6        B      tau(   6) = (   0.8858033   0.7555337   0.3415442  )
         7        H      tau(   7) = (   0.4394030   0.2960767  -0.0000147  )
         8        H      tau(   8) = (   0.5605970   0.7218743  -0.0000147  )
         9        H      tau(   9) = (   0.9394030   0.2128988   0.3415550  )
        10        H      tau(  10) = (   0.0605970   0.8050522   0.3415550  )
        11        H      tau(  11) = (   0.7208817   0.3948592   0.0000136  )
        12        H      tau(  12) = (   0.2791183   0.6230918   0.0000136  )
        13        H      tau(  13) = (   0.2208817   0.1141163   0.3415267  )
        14        H      tau(  14) = (   0.7791183   0.9038347   0.3415267  )
        15        H      tau(  15) = (   0.6450297   0.1490981   0.5332835  )
        16        H      tau(  16) = (   0.3549703   0.8688529   0.5332835  )
        17        H      tau(  17) = (   0.1450297   0.3598774   0.4913374  )
        18        H      tau(  18) = (   0.8549703   0.6580736   0.4913374  )
        19        H      tau(  19) = (   0.3549857   0.8688402   0.1497973  )
        20        H      tau(  20) = (   0.6450143   0.1491108   0.1497973  )
        21        H      tau(  21) = (   0.8549857   0.6580863   0.1917430  )
        22        H      tau(  22) = (   0.1450143   0.3598647   0.1917430  )

     number of k points=    27
                       cart. coord. in units 2pi/alat
        k(    1) = (   0.0000000   0.0000000   0.0000000), wk =   0.0160000
        k(    2) = (   0.0000000   0.0000000   0.2927912), wk =   0.0320000
        k(    3) = (   0.0000000   0.0000000   0.5855824), wk =   0.0320000
        k(    4) = (   0.0000000   0.1964731   0.0000000), wk =   0.0320000
        k(    5) = (   0.0000000   0.1964731   0.2927912), wk =   0.0640000
        k(    6) = (   0.0000000   0.1964731   0.5855824), wk =   0.0640000
        k(    7) = (   0.0000000   0.3929462   0.0000000), wk =   0.0320000
        k(    8) = (   0.0000000   0.3929462   0.2927912), wk =   0.0640000
        k(    9) = (   0.0000000   0.3929462   0.5855824), wk =   0.0640000
        k(   10) = (   0.2000000   0.0000000   0.0000000), wk =   0.0320000
        k(   11) = (   0.2000000   0.0000000   0.2927912), wk =   0.0640000
        k(   12) = (   0.2000000   0.0000000   0.5855824), wk =   0.0640000
        k(   13) = (   0.2000000   0.1964731   0.0000000), wk =   0.0640000
        k(   14) = (   0.2000000   0.1964731   0.2927912), wk =   0.1280000
        k(   15) = (   0.2000000   0.1964731   0.5855824), wk =   0.1280000
        k(   16) = (   0.2000000   0.3929462   0.0000000), wk =   0.0640000
        k(   17) = (   0.2000000   0.3929462   0.2927912), wk =   0.1280000
        k(   18) = (   0.2000000   0.3929462   0.5855824), wk =   0.1280000
        k(   19) = (   0.4000000   0.0000000   0.0000000), wk =   0.0320000
        k(   20) = (   0.4000000   0.0000000   0.2927912), wk =   0.0640000
        k(   21) = (   0.4000000   0.0000000   0.5855824), wk =   0.0640000
        k(   22) = (   0.4000000   0.1964731   0.0000000), wk =   0.0640000
        k(   23) = (   0.4000000   0.1964731   0.2927912), wk =   0.1280000
        k(   24) = (   0.4000000   0.1964731   0.5855824), wk =   0.1280000
        k(   25) = (   0.4000000   0.3929462   0.0000000), wk =   0.0640000
        k(   26) = (   0.4000000   0.3929462   0.2927912), wk =   0.1280000
        k(   27) = (   0.4000000   0.3929462   0.5855824), wk =   0.1280000

     Dense  grid:   558953 G-vectors     FFT dimensions: ( 120, 120,  80)

     Smooth grid:   197593 G-vectors     FFT dimensions: (  90,  90,  60)

     Estimated max dynamical RAM per process >      67.65 MB

     Estimated total dynamical RAM >       1.59 GB

     Initial potential from superposition of free atoms

     starting charge      47.9682, renormalised to      48.0000
     Starting wfcs are   42 randomized atomic wfcs

     total cpu time spent up to now is       12.2 secs

     Self-consistent Calculation

     iteration #  1     ecut=   100.00 Ry     beta= 0.70
     Davidson diagonalization with overlap
     ethr =  1.00E-02,  avg # of iterations =  2.0

     total cpu time spent up to now is       28.7 secs

     total energy              =    -155.92256877 Ry
     estimated scf accuracy    <       2.10731775 Ry

     iteration #  2     ecut=   100.00 Ry     beta= 0.70
     Davidson diagonalization with overlap
     ethr =  4.39E-03,  avg # of iterations =  2.0

     total cpu time spent up to now is       44.7 secs

     total energy              =    -156.40810204 Ry
     estimated scf accuracy    <       0.37476756 Ry

     iteration #  3     ecut=   100.00 Ry     beta= 0.70
     Davidson diagonalization with overlap
     ethr =  7.81E-04,  avg # of iterations =  2.0

     total cpu time spent up to now is       60.6 secs

     total energy              =    -156.47069408 Ry
     estimated scf accuracy    <       0.00490498 Ry

     iteration #  4     ecut=   100.00 Ry     beta= 0.70
     Davidson diagonalization with overlap
     ethr =  1.02E-05,  avg # of iterations =  5.1

     total cpu time spent up to now is       83.9 secs

     total energy              =    -156.47374259 Ry
     estimated scf accuracy    <       0.00173989 Ry

     iteration #  5     ecut=   100.00 Ry     beta= 0.70
     Davidson diagonalization with overlap
     ethr =  3.62E-06,  avg # of iterations =  3.2

     total cpu time spent up to now is      100.4 secs

     total energy              =    -156.47434216 Ry
     estimated scf accuracy    <       0.00017347 Ry

     iteration #  6     ecut=   100.00 Ry     beta= 0.70
     Davidson diagonalization with overlap
     ethr =  3.61E-07,  avg # of iterations =  4.2

     total cpu time spent up to now is      119.1 secs

     total energy              =    -156.47441030 Ry
     estimated scf accuracy    <       0.00000106 Ry

     iteration #  7     ecut=   100.00 Ry     beta= 0.70
     Davidson diagonalization with overlap
     ethr =  2.21E-09,  avg # of iterations = 10.4

     total cpu time spent up to now is      161.2 secs

     total energy              =    -156.47442102 Ry
     estimated scf accuracy    <       0.00000087 Ry

     iteration #  8     ecut=   100.00 Ry     beta= 0.70
     Davidson diagonalization with overlap
     ethr =  1.80E-09,  avg # of iterations =  2.1

     total cpu time spent up to now is      177.2 secs

     total energy              =    -156.47442120 Ry
     estimated scf accuracy    <       0.00000002 Ry

     iteration #  9     ecut=   100.00 Ry     beta= 0.70
     Davidson diagonalization with overlap
     ethr =  3.93E-11,  avg # of iterations =  5.7

     total cpu time spent up to now is      198.5 secs

     total energy              =    -156.47442122 Ry
     estimated scf accuracy    <          2.6E-09 Ry

     iteration # 10     ecut=   100.00 Ry     beta= 0.70
     Davidson diagonalization with overlap
     ethr =  5.49E-12,  avg # of iterations =  3.1

     total cpu time spent up to now is      216.8 secs

     total energy              =    -156.47442122 Ry
     estimated scf accuracy    <          1.6E-10 Ry

     iteration # 11     ecut=   100.00 Ry     beta= 0.70
     Davidson diagonalization with overlap
     ethr =  3.36E-13,  avg # of iterations =  5.5

     total cpu time spent up to now is      240.6 secs

     End of self-consistent calculation

          k = 0.0000 0.0000 0.0000 ( 24699 PWs)   bands (ev):

   -24.0118 -24.0035  -9.5489  -9.4688  -9.2746  -9.2351  -9.1996  -9.1391
    -6.1018  -5.1728  -4.5191  -4.3908  -1.7975  -0.8800  -0.8321  -0.4794
    -0.1561  -0.1332  -0.0242   0.0231   0.2573   0.6250   0.6375   0.6776

          k = 0.0000 0.0000 0.2928 ( 24688 PWs)   bands (ev):

   -24.0064 -23.9997  -9.4848  -9.4219  -9.3830  -9.3509  -9.2605  -9.2328
    -5.7537  -4.9764  -4.6411  -4.5439  -1.5172  -1.1189  -0.7324  -0.6505
    -0.4122  -0.3116  -0.0240   0.1561   0.4428   0.4910   0.5068   0.6730

          k = 0.0000 0.0000 0.5856 ( 24752 PWs)   bands (ev):

   -23.9968 -23.9943  -9.6431  -9.6370  -9.3526  -9.3273  -9.2574  -9.2472
    -5.1144  -4.8358  -4.8036  -4.7883  -1.2664  -1.2507  -1.0773  -0.9523
    -0.3394  -0.2804   0.0415   0.1324   0.4069   0.4139   0.5593   0.5699

          k = 0.0000 0.1965 0.0000 ( 24685 PWs)   bands (ev):

   -24.0110 -24.0042  -9.5305  -9.4493  -9.3082  -9.2581  -9.1937  -9.1447
    -5.9760  -5.1194  -4.7023  -4.4691  -1.5659  -0.9772  -0.9429  -0.2587
    -0.1854  -0.1515   0.0011   0.1643   0.3016   0.4302   0.5691   0.6228

          k = 0.0000 0.1965 0.2928 ( 24685 PWs)   bands (ev):

   -24.0057 -24.0003  -9.4836  -9.4080  -9.3750  -9.3657  -9.2608  -9.2486
    -5.6627  -4.9508  -4.7596  -4.5897  -1.3627  -1.1477  -0.9356  -0.3997
    -0.3128  -0.2503  -0.1988   0.2475   0.4174   0.4622   0.4934   0.5640

          k = 0.0000 0.1965 0.5856 ( 24734 PWs)   bands (ev):

   -23.9966 -23.9945  -9.6528  -9.6470  -9.3324  -9.3162  -9.2577  -9.2531
    -5.2083  -5.0623  -4.6810  -4.5850  -1.3093  -1.2399  -1.1086  -0.8644
    -0.2561  -0.1429   0.0093   0.1363   0.3262   0.3917   0.4730   0.5508

          k = 0.0000 0.3929 0.0000 ( 24728 PWs)   bands (ev):

   -24.0089 -24.0063  -9.4773  -9.4146  -9.3678  -9.3160  -9.1784  -9.1597
    -5.6405  -5.2124  -4.8654  -4.6629  -1.2035  -1.1191  -0.8024  -0.2494
    -0.2419  -0.1698   0.0794   0.2456   0.2909   0.3391   0.4357   0.5380

          k = 0.0000 0.3929 0.2928 ( 24707 PWs)   bands (ev):

   -24.0040 -24.0020  -9.4677  -9.4294  -9.3635  -9.3387  -9.2810  -9.2741
    -5.4172  -5.0955  -4.8204  -4.7012  -1.1738  -1.1494  -0.9147  -0.5264
    -0.2012  -0.1323  -0.0241   0.2176   0.2552   0.3057   0.5178   0.5188

          k = 0.0000 0.3929 0.5856 ( 24713 PWs)   bands (ev):

   -23.9959 -23.9951  -9.6658  -9.6632  -9.2935  -9.2926  -9.2694  -9.2661
    -5.2877  -5.2394  -4.5238  -4.4771  -1.3710  -1.3537  -0.8872  -0.7354
    -0.1495  -0.1064   0.0364   0.1031   0.2307   0.2964   0.4097   0.5133

          k = 0.2000 0.0000 0.0000 ( 24659 PWs)   bands (ev):

   -24.0110 -24.0042  -9.5245  -9.4560  -9.3020  -9.2683  -9.1937  -9.1447
    -5.9818  -5.1907  -4.5455  -4.4952  -1.6694  -0.7766  -0.7016  -0.6833
    -0.0972  -0.0281   0.0016   0.0092   0.2192   0.3257   0.6282   0.6396

          k = 0.2000 0.0000 0.2928 ( 24699 PWs)   bands (ev):

   -24.0057 -24.0003  -9.4669  -9.4419  -9.3717  -9.3530  -9.2772  -9.2368
    -5.6516  -4.9747  -4.6641  -4.6367  -1.4278  -1.1347  -0.8141  -0.5718
    -0.4017  -0.2345  -0.0098   0.1976   0.2336   0.4586   0.5902   0.6305

          k = 0.2000 0.0000 0.5856 ( 24721 PWs)   bands (ev):

   -23.9966 -23.9945  -9.6554  -9.6500  -9.3393  -9.3108  -9.2635  -9.2479
    -5.0949  -4.9075  -4.8100  -4.7016  -1.5733  -1.3922  -0.9659  -0.6824
    -0.2987  -0.0798   0.0505   0.1493   0.3210   0.4348   0.4645   0.5888

          k = 0.2000 0.1965 0.0000 ( 24689 PWs)   bands (ev):

   -24.0103 -24.0049  -9.5353  -9.4176  -9.3633  -9.2446  -9.1889  -9.1493
    -5.8810  -5.1559  -4.7267  -4.5141  -1.4724  -0.9618  -0.8087  -0.3824
    -0.2029  -0.1466   0.1400   0.1663   0.2399   0.2994   0.4819   0.5993

          k = 0.2000 0.1965 0.2928 ( 24686 PWs)   bands (ev):

   -24.0052 -24.0008  -9.4769  -9.4274  -9.3929  -9.3374  -9.2800  -9.2381
    -5.5739  -4.9408  -4.8097  -4.6385  -1.3186  -1.1377  -0.9435  -0.4517
    -0.3369  -0.1944  -0.0467   0.1920   0.2708   0.4186   0.5263   0.6050

          k = 0.2000 0.1965 0.5856 ( 24712 PWs)   bands (ev):

   -23.9964 -23.9947  -9.6640  -9.6427  -9.3490  -9.2881  -9.2711  -9.2511
    -5.1872  -4.9844  -4.7645  -4.5717  -1.5452  -1.3941  -0.9264  -0.7155
    -0.2498  -0.0646   0.0399   0.1845   0.2746   0.3991   0.4578   0.5736

          k = 0.2000 0.3929 0.0000 ( 24693 PWs)   bands (ev):

   -24.0086 -24.0065  -9.5203  -9.4627  -9.3286  -9.2656  -9.1764  -9.1613
    -5.6084  -5.2651  -4.8322  -4.6660  -1.1401  -1.0759  -0.7568  -0.2812
    -0.2585  -0.2285  -0.0094   0.2947   0.3136   0.3637   0.4086   0.4541

          k = 0.2000 0.3929 0.2928 ( 24707 PWs)   bands (ev):

   -24.0038 -24.0021  -9.4759  -9.4491  -9.3768  -9.3381  -9.2727  -9.2483
    -5.3631  -5.0799  -4.8464  -4.7285  -1.2128  -1.1383  -0.8791  -0.5632
    -0.1829  -0.1121  -0.0179   0.2074   0.2306   0.3357   0.4951   0.5276

          k = 0.2000 0.3929 0.5856 ( 24708 PWs)   bands (ev):

   -23.9958 -23.9952  -9.6620  -9.6492  -9.3346  -9.3000  -9.2645  -9.2545
    -5.2349  -5.1601  -4.5900  -4.5125  -1.4865  -1.4206  -0.8348  -0.7402
    -0.2157  -0.0876   0.0524   0.1857   0.3012   0.3689   0.4193   0.5208

          k = 0.4000 0.0000 0.0000 ( 24656 PWs)   bands (ev):

   -24.0089 -24.0063  -9.4600  -9.4178  -9.3687  -9.3410  -9.1784  -9.1597
    -5.6784  -5.3469  -4.6222  -4.6046  -1.3641  -1.0118  -0.5663  -0.2729
    -0.1756  -0.0305  -0.0168  -0.0015   0.1196   0.1291   0.4395   0.5323

          k = 0.4000 0.0000 0.2928 ( 24684 PWs)   bands (ev):

   -24.0040 -24.0019  -9.4492  -9.4370  -9.3931  -9.3487  -9.2859  -9.2555
    -5.3879  -5.0882  -4.7508  -4.7183  -1.2688  -1.0759  -0.9520  -0.5764
    -0.2836  -0.0803  -0.0739   0.0111   0.2827   0.3968   0.5728   0.5850

          k = 0.4000 0.0000 0.5856 ( 24731 PWs)   bands (ev):

   -23.9959 -23.9951  -9.6726  -9.6703  -9.3108  -9.2857  -9.2754  -9.2555
    -5.0557  -4.9981  -4.7365  -4.6772  -1.7471  -1.6736  -0.6755  -0.4945
    -0.2004  -0.0713   0.0319   0.1437   0.3419   0.4210   0.4933   0.5546

          k = 0.4000 0.1965 0.0000 ( 24665 PWs)   bands (ev):

   -24.0086 -24.0065  -9.5173  -9.4597  -9.3357  -9.2718  -9.1764  -9.1613
    -5.6350  -5.3426  -4.7043  -4.6105  -1.2490  -1.0259  -0.5359  -0.3395
    -0.2046  -0.1745  -0.1172   0.1004   0.2072   0.2675   0.4100   0.5249

          k = 0.4000 0.1965 0.2928 ( 24694 PWs)   bands (ev):

   -24.0038 -24.0021  -9.4706  -9.4501  -9.3889  -9.3464  -9.2700  -9.2441
    -5.3452  -5.0753  -4.8127  -4.7294  -1.2495  -1.1052  -0.9288  -0.5937
    -0.2534  -0.0619  -0.0177   0.0876   0.2555   0.3723   0.5172   0.5689

          k = 0.4000 0.1965 0.5856 ( 24717 PWs)   bands (ev):

   -23.9958 -23.9952  -9.6665  -9.6539  -9.3373  -9.3030  -9.2633  -9.2531
    -5.0977  -4.9628  -4.7691  -4.6302  -1.6962  -1.6345  -0.7028  -0.6072
    -0.1939  -0.0734   0.0368   0.1686   0.3534   0.4114   0.5057   0.5820

          k = 0.4000 0.3929 0.0000 ( 24661 PWs)   bands (ev):

   -24.0079 -24.0072  -9.5511  -9.5300  -9.2623  -9.2362  -9.1714  -9.1656
    -5.5177  -5.3885  -4.7567  -4.6921  -1.0315  -1.0023  -0.6228  -0.4113
    -0.3119  -0.2998  -0.0217   0.1839   0.3560   0.3622   0.3854   0.4027

          k = 0.4000 0.3929 0.2928 ( 24709 PWs)   bands (ev):

   -24.0033 -24.0026  -9.4894  -9.4803  -9.3715  -9.3540  -9.2433  -9.2328
    -5.2324  -5.1058  -4.8572  -4.7945  -1.2082  -1.1454  -0.8680  -0.7230
    -0.0718   0.0170   0.0604   0.1753   0.2134   0.3541   0.3985   0.4754

          k = 0.4000 0.3929 0.5856 ( 24691 PWs)   bands (ev):

   -23.9956 -23.9954  -9.6448  -9.6357  -9.3596  -9.3412  -9.2540  -9.2523
    -5.0951  -5.0290  -4.6957  -4.6272  -1.5798  -1.5501  -0.8500  -0.8364
    -0.0859   0.0319   0.1400   0.1725   0.3244   0.3439   0.5188   0.5554

     highest occupied level (ev):     0.6776

!    total energy              =    -156.47442122 Ry
     estimated scf accuracy    <          6.5E-12 Ry

     The total energy is the sum of the following terms:
     one-electron contribution =     -24.08382416 Ry
     hartree contribution      =      26.21725065 Ry
     xc contribution           =     -49.10716827 Ry
     ewald contribution        =    -109.50067944 Ry

     convergence has been achieved in  11 iterations

     Writing all to output data dir ./pwscf.save/ :
     XML data file, charge density, pseudopotentials, collected wavefunctions

     init_run     :     10.34s CPU     11.78s WALL (       1 calls)
     electrons    :    226.80s CPU    228.54s WALL (       1 calls)

     Called by init_run:
     wfcinit      :      7.84s CPU      7.89s WALL (       1 calls)
     potinit      :      0.58s CPU      1.06s WALL (       1 calls)
     hinit0       :      1.05s CPU      1.89s WALL (       1 calls)

     Called by electrons:
     c_bands      :    202.87s CPU    204.15s WALL (      11 calls)
     sum_band     :     20.30s CPU     20.60s WALL (      11 calls)
     v_of_rho     :      1.39s CPU      1.46s WALL (      12 calls)
     newd         :      2.15s CPU      2.18s WALL (      12 calls)
     mix_rho      :      0.22s CPU      0.23s WALL (      11 calls)

     Called by c_bands:
     init_us_2    :      4.11s CPU      4.16s WALL (     621 calls)
     cegterg      :    183.46s CPU    184.68s WALL (     297 calls)

     Called by *egterg:
     cdiaghg      :      2.96s CPU      2.97s WALL (    1522 calls)
     h_psi        :    132.59s CPU    133.64s WALL (    1549 calls)
     s_psi        :     24.28s CPU     24.38s WALL (    1549 calls)
     g_psi        :      0.54s CPU      0.55s WALL (    1225 calls)

     Called by h_psi:
     h_psi:calbec :     21.70s CPU     21.82s WALL (    1549 calls)
     vloc_psi     :     86.20s CPU     87.04s WALL (    1549 calls)
     add_vuspsi   :     24.28s CPU     24.38s WALL (    1549 calls)

     General routines
     calbec       :     27.36s CPU     27.51s WALL (    1846 calls)
     fft          :      1.77s CPU      2.64s WALL (     154 calls)
     ffts         :      0.47s CPU      0.94s WALL (      23 calls)
     fftw         :     84.71s CPU     85.53s WALL (   60908 calls)
     interpolate  :      0.51s CPU      0.99s WALL (      12 calls)

     Parallel routines

     PWSCF        :   3m58.03s CPU   4m 1.95s WALL


   This run was terminated on:  12:21:17  12Jul2024            

=------------------------------------------------------------------------------=
   JOB DONE.
=------------------------------------------------------------------------------=
