
     Program Q2R v.7.3.1 starts on 24Jul2024 at  6:46: 6 

     This program is part of the open-source Quantum ESPRESSO suite
     for quantum simulation of materials; please cite
         "P. Giannozzi et al., J. Phys.:Condens. Matter 21 395502 (2009);
         "P. Giannozzi et al., J. Phys.:Condens. Matter 29 465901 (2017);
         "P. Giannozzi et al., J. Chem. Phys. 152 154105 (2020);
          URL http://www.quantum-espresso.org", 
     in publications or presentations arising from this work. More details at
     http://www.quantum-espresso.org/quote

     Parallel version (MPI), running on    24 processors

     MPI processes distributed on     1 nodes
     R & G space division:  proc/nbgrp/npool/nimage =      24
     59258 MiB available memory on the printing compute node when the environment starts


  reading grid info from file dyn0    

  reading force constants from file dyn1
 macroscopic fields = T
   3.05715   0.00000   0.00000
   0.00000   3.11266   0.00000
   0.00000   0.00000   3.26242
  na=            1
   2.47245  -0.05360   0.00000
   0.28244   2.49353   0.00000
   0.00000   0.00000   2.96146
  na=            2
   2.47245   0.05360   0.00000
  -0.28244   2.49353   0.00000
   0.00000   0.00000   2.96146
  na=            3
  -0.14326   0.02941  -0.00002
   0.17399  -0.03107   0.00006
   0.00003   0.00003  -0.19842
  na=            4
  -0.14326   0.02941   0.00002
   0.17399  -0.03107  -0.00006
  -0.00003  -0.00003  -0.19842
  na=            5
  -0.14326  -0.02941   0.00002
  -0.17399  -0.03107   0.00006
  -0.00003   0.00003  -0.19842
  na=            6
  -0.14326  -0.02941  -0.00002
  -0.17399  -0.03107  -0.00006
   0.00003  -0.00003  -0.19842
  na=            7
  -0.43459   0.13924  -0.00001
   0.14491  -0.24572   0.00003
  -0.00003   0.00003  -0.24941
  na=            8
  -0.43459   0.13924   0.00001
   0.14491  -0.24572  -0.00003
   0.00003  -0.00003  -0.24941
  na=            9
  -0.43459  -0.13924   0.00001
  -0.14491  -0.24572   0.00003
   0.00003   0.00003  -0.24941
  na=           10
  -0.43459  -0.13924  -0.00001
  -0.14491  -0.24572  -0.00003
  -0.00003  -0.00003  -0.24941
  na=           11
  -0.25479  -0.03478   0.00000
  -0.11097  -0.43308  -0.00004
   0.00000  -0.00002  -0.24470
  na=           12
  -0.25479  -0.03478  -0.00000
  -0.11097  -0.43308   0.00004
  -0.00000   0.00002  -0.24470
  na=           13
  -0.25479   0.03478  -0.00000
   0.11097  -0.43308  -0.00004
  -0.00000  -0.00002  -0.24470
  na=           14
  -0.25479   0.03478   0.00000
   0.11097  -0.43308   0.00004
   0.00000   0.00002  -0.24470
  na=           15
  -0.20195   0.14932   0.06402
   0.10174  -0.26782  -0.09746
   0.02505  -0.11355  -0.39385
  na=           16
  -0.20195   0.14932  -0.06402
   0.10174  -0.26782   0.09746
  -0.02505   0.11355  -0.39385
  na=           17
  -0.20195  -0.14932  -0.06402
  -0.10174  -0.26782  -0.09746
  -0.02505  -0.11355  -0.39385
  na=           18
  -0.20195  -0.14932   0.06402
  -0.10174  -0.26782   0.09746
   0.02505   0.11355  -0.39385
  na=           19
  -0.20191   0.14929   0.06399
   0.10171  -0.26782  -0.09748
   0.02503  -0.11355  -0.39394
  na=           20
  -0.20191   0.14929  -0.06399
   0.10171  -0.26782   0.09748
  -0.02503   0.11355  -0.39394
  na=           21
  -0.20191  -0.14929  -0.06399
  -0.10171  -0.26782  -0.09748
  -0.02503  -0.11355  -0.39394
  na=           22
  -0.20191  -0.14929   0.06399
  -0.10171  -0.26782   0.09748
   0.02503   0.11355  -0.39394
  Norm of the difference between old and new effective charges:    0.00115438554518586451
  nqs=            1
 q=   0.00000000  0.00000000  0.00000000
  reading force constants from file dyn2
  nqs=            2
 q=   0.00000000  0.00000000  0.48798536
 q=   0.00000000  0.00000000 -0.48798536
  reading force constants from file dyn3
  nqs=            2
 q=   0.00000000  0.32745518  0.00000000
 q=   0.00000000 -0.32745518  0.00000000
  reading force constants from file dyn4
  nqs=            4
 q=   0.00000000  0.32745518  0.48798536
 q=   0.00000000  0.32745518 -0.48798536
 q=   0.00000000 -0.32745518 -0.48798536
 q=   0.00000000 -0.32745518  0.48798536
  reading force constants from file dyn5
  nqs=            2
 q=   0.33333333  0.00000000  0.00000000
 q=  -0.33333333  0.00000000  0.00000000
  reading force constants from file dyn6
  nqs=            4
 q=   0.33333333  0.00000000  0.48798536
 q=   0.33333333  0.00000000 -0.48798536
 q=  -0.33333333  0.00000000 -0.48798536
 q=  -0.33333333  0.00000000  0.48798536
  reading force constants from file dyn7
  nqs=            4
 q=   0.33333333  0.32745518  0.00000000
 q=   0.33333333 -0.32745518  0.00000000
 q=  -0.33333333  0.32745518  0.00000000
 q=  -0.33333333 -0.32745518  0.00000000
  reading force constants from file dyn8
  nqs=            8
 q=   0.33333333  0.32745518  0.48798536
 q=  -0.33333333 -0.32745518 -0.48798536
 q=   0.33333333 -0.32745518 -0.48798536
 q=  -0.33333333  0.32745518  0.48798536
 q=  -0.33333333  0.32745518 -0.48798536
 q=   0.33333333 -0.32745518  0.48798536
 q=  -0.33333333 -0.32745518  0.48798536
 q=   0.33333333  0.32745518 -0.48798536

      q-space grid ok, #points =   27

      fft-check success (sum of imaginary terms < 10^-12)

     Q2R          :      3.09s CPU      3.13s WALL


   This run was terminated on:   6:46: 9  24Jul2024            

=------------------------------------------------------------------------------=
   JOB DONE.
=------------------------------------------------------------------------------=
