
     Program PWSCF v.7.3.1 starts on 11Jul2024 at 15:30:39 

     This program is part of the open-source Quantum ESPRESSO suite
     for quantum simulation of materials; please cite
         "P. Giannozzi et al., J. Phys.:Condens. Matter 21 395502 (2009);
         "P. Giannozzi et al., J. Phys.:Condens. Matter 29 465901 (2017);
         "P. Giannozzi et al., J. Chem. Phys. 152 154105 (2020);
          URL http://www.quantum-espresso.org", 
     in publications or presentations arising from this work. More details at
     http://www.quantum-espresso.org/quote

     Parallel version (MPI), running on    24 processors

     MPI processes distributed on     1 nodes
     94334 MiB available memory on the printing compute node when the environment starts

     Waiting for input...
     Reading input from standard input

     Current dimensions of program PWSCF are:
     Max number of different atomic species (ntypx) = 10
     Max number of k-points (npk) =  40000
     Max angular momentum in pseudopotentials (lmaxx) =  4

     R & G space division:  proc/nbgrp/npool/nimage =      24
     Subspace diagonalization in iterative solution of the eigenvalue problem:
     a serial algorithm will be used


     Parallelization info
     --------------------
     sticks:   dense  smooth     PW     G-vecs:    dense   smooth      PW
     Min         426     212     58                22149     7832    1134
     Max         428     213     59                22151     7835    1137
     Sum       10231    5107   1399               531601   188005   27251

     Using Slab Decomposition


     Title: 
     volume variation                                                           


     bravais-lattice index     =            8
     lattice parameter (alat)  =      12.5132  a.u.
     unit-cell volume          =    1391.2960 (a.u.)^3
     number of atoms/cell      =           22
     number of atomic types    =            3
     number of electrons       =        48.00
     number of Kohn-Sham states=           24
     kinetic-energy cutoff     =     100.0000  Ry
     charge density cutoff     =     800.0000  Ry
     scf convergence threshold =      1.0E-10
     mixing beta               =       0.7000
     number of iterations used =            8  plain     mixing
     energy convergence thresh.=      1.0E-05
     force convergence thresh. =      1.0E-05
     press convergence thresh. =      5.0E-01
     Exchange-correlation= PBESOL
                           (   1   4  10   8   0   0   0)
     nstep                     =          100


     celldm(1)=  12.513155  celldm(2)=   1.025571  celldm(3)=   0.692394
     celldm(4)=   0.000000  celldm(5)=   0.000000  celldm(6)=   0.000000

     crystal axes: (cart. coord. in units of alat)
               a(1) = (   1.000000   0.000000   0.000000 )  
               a(2) = (   0.000000   1.025571   0.000000 )  
               a(3) = (   0.000000   0.000000   0.692394 )  

     reciprocal axes: (cart. coord. in units 2 pi/alat)
               b(1) = (  1.000000  0.000000  0.000000 )  
               b(2) = (  0.000000  0.975067  0.000000 )  
               b(3) = (  0.000000  0.000000  1.444264 )  


     PseudoPot. # 1 for B  read from file:
     /home/mehlhorn/pseudos/b_pbesol_v1.4.uspp.F.UPF
     MD5 check sum: 369b69bef2c3aeed4453bd8b804fd6a8
     Pseudo is Ultrasoft + core correction, Zval =  3.0
     Generated by new atomic code, or converted to UPF format
     Using radial grid of  781 points,  4 beta functions with: 
                l(1) =   0
                l(2) =   0
                l(3) =   1
                l(4) =   1
     Q(r) pseudized with  8 coefficients,  rinner =    1.100   1.100   1.100


     PseudoPot. # 2 for Ba read from file:
     /home/mehlhorn/pseudos/Ba.nc.z_10.oncvpsp4.dojo.v4-sp.upf
     MD5 check sum: c10ed334bb677c0554edec7181ce9143
     Pseudo is Norm-conserving + core correction, Zval = 10.0
     Generated using ONCVPSP code by D. R. Hamann
     Using radial grid of 1938 points,  8 beta functions with: 
                l(1) =   0
                l(2) =   0
                l(3) =   1
                l(4) =   1
                l(5) =   2
                l(6) =   2
                l(7) =   3
                l(8) =   3

     PseudoPot. # 3 for H  read from file:
     /home/mehlhorn/pseudos/H_ONCV_PBEsol-1.0.upf
     MD5 check sum: 398ef8f67c0a7342c05c87c5e19ea467
     Pseudo is Norm-conserving, Zval =  1.0
     Generated using ONCVPSP code by D. R. Hamann
     Using radial grid of 1180 points,  2 beta functions with: 
                l(1) =   0
                l(2) =   0

     atomic species   valence    mass     pseudopotential
     B                 3.00    10.81100     B ( 1.00)
     Ba               10.00   137.32700     Ba( 1.00)
     H                 1.00     1.00794     H ( 1.00)

      4 Sym. Ops. (no inversion) found ( 2 have fractional translation)



   Cartesian axes

     site n.     atom                  positions (alat units)
         1        Ba     tau(   1) = (   0.5000000   0.5127855   0.3462657  )
         2        Ba     tau(   2) = (   0.0000000   0.0000000   0.6923255  )
         3        B      tau(   3) = (   0.6102570   0.2453190   0.0000455  )
         4        B      tau(   4) = (   0.3897430   0.7802519   0.0000455  )
         5        B      tau(   5) = (   0.1102570   0.2674665   0.3461516  )
         6        B      tau(   6) = (   0.8897430   0.7581045   0.3461516  )
         7        H      tau(   7) = (   0.4340973   0.2996264   0.0001599  )
         8        H      tau(   8) = (   0.5659027   0.7259445   0.0001599  )
         9        H      tau(   9) = (   0.9340973   0.2131590   0.3460372  )
        10        H      tau(  10) = (   0.0659027   0.8124119   0.3460372  )
        11        H      tau(  11) = (   0.7220603   0.3933629  -0.0000058  )
        12        H      tau(  12) = (   0.2779397   0.6322081  -0.0000058  )
        13        H      tau(  13) = (   0.2220603   0.1194226   0.3462029  )
        14        H      tau(  14) = (   0.7779397   0.9061483   0.3462029  )
        15        H      tau(  15) = (   0.6392499   0.1457279   0.5404125  )
        16        H      tau(  16) = (   0.3607501   0.8798430   0.5404125  )
        17        H      tau(  17) = (   0.1392499   0.3670576   0.4981787  )
        18        H      tau(  18) = (   0.8607501   0.6585133   0.4981787  )
        19        H      tau(  19) = (   0.3605328   0.8798946   0.1519977  )
        20        H      tau(  20) = (   0.6394672   0.1456763   0.1519977  )
        21        H      tau(  21) = (   0.8605328   0.6584617   0.1941994  )
        22        H      tau(  22) = (   0.1394672   0.3671092   0.1941994  )

     number of k points=    27
                       cart. coord. in units 2pi/alat
        k(    1) = (   0.0000000   0.0000000   0.0000000), wk =   0.0312500
        k(    2) = (   0.0000000   0.0000000   0.3610660), wk =   0.0625000
        k(    3) = (   0.0000000   0.0000000  -0.7221320), wk =   0.0312500
        k(    4) = (   0.0000000   0.2437667   0.0000000), wk =   0.0625000
        k(    5) = (   0.0000000   0.2437667   0.3610660), wk =   0.1250000
        k(    6) = (   0.0000000   0.2437667  -0.7221320), wk =   0.0625000
        k(    7) = (   0.0000000  -0.4875333   0.0000000), wk =   0.0312500
        k(    8) = (   0.0000000  -0.4875333   0.3610660), wk =   0.0625000
        k(    9) = (   0.0000000  -0.4875333  -0.7221320), wk =   0.0312500
        k(   10) = (   0.2500000   0.0000000   0.0000000), wk =   0.0625000
        k(   11) = (   0.2500000   0.0000000   0.3610660), wk =   0.1250000
        k(   12) = (   0.2500000   0.0000000  -0.7221320), wk =   0.0625000
        k(   13) = (   0.2500000   0.2437667   0.0000000), wk =   0.1250000
        k(   14) = (   0.2500000   0.2437667   0.3610660), wk =   0.2500000
        k(   15) = (   0.2500000   0.2437667  -0.7221320), wk =   0.1250000
        k(   16) = (   0.2500000  -0.4875333   0.0000000), wk =   0.0625000
        k(   17) = (   0.2500000  -0.4875333   0.3610660), wk =   0.1250000
        k(   18) = (   0.2500000  -0.4875333  -0.7221320), wk =   0.0625000
        k(   19) = (  -0.5000000   0.0000000   0.0000000), wk =   0.0312500
        k(   20) = (  -0.5000000   0.0000000   0.3610660), wk =   0.0625000
        k(   21) = (  -0.5000000   0.0000000  -0.7221320), wk =   0.0312500
        k(   22) = (  -0.5000000   0.2437667   0.0000000), wk =   0.0625000
        k(   23) = (  -0.5000000   0.2437667   0.3610660), wk =   0.1250000
        k(   24) = (  -0.5000000   0.2437667  -0.7221320), wk =   0.0625000
        k(   25) = (  -0.5000000  -0.4875333   0.0000000), wk =   0.0312500
        k(   26) = (  -0.5000000  -0.4875333   0.3610660), wk =   0.0625000
        k(   27) = (  -0.5000000  -0.4875333  -0.7221320), wk =   0.0312500

     Dense  grid:   531601 G-vectors     FFT dimensions: ( 120, 120,  80)

     Smooth grid:   188005 G-vectors     FFT dimensions: (  80,  90,  60)

     Estimated max dynamical RAM per process >      89.43 MB

     Estimated total dynamical RAM >       2.10 GB

     Initial potential from superposition of free atoms

     starting charge      47.9682, renormalised to      48.0000
     Starting wfcs are   42 randomized atomic wfcs

     total cpu time spent up to now is       11.6 secs

     Self-consistent Calculation

     iteration #  1     ecut=   100.00 Ry     beta= 0.70
     Davidson diagonalization with overlap
     ethr =  1.00E-02,  avg # of iterations =  2.0

     total cpu time spent up to now is       26.0 secs

     total energy              =    -155.91017186 Ry
     estimated scf accuracy    <       2.14584273 Ry

     iteration #  2     ecut=   100.00 Ry     beta= 0.70
     Davidson diagonalization with overlap
     ethr =  4.47E-03,  avg # of iterations =  2.0

     total cpu time spent up to now is       39.8 secs

     total energy              =    -156.40696470 Ry
     estimated scf accuracy    <       0.37339307 Ry

     iteration #  3     ecut=   100.00 Ry     beta= 0.70
     Davidson diagonalization with overlap
     ethr =  7.78E-04,  avg # of iterations =  2.0

     total cpu time spent up to now is       53.7 secs

     total energy              =    -156.46907272 Ry
     estimated scf accuracy    <       0.00497271 Ry

     iteration #  4     ecut=   100.00 Ry     beta= 0.70
     Davidson diagonalization with overlap
     ethr =  1.04E-05,  avg # of iterations =  5.1

     total cpu time spent up to now is       73.6 secs

     total energy              =    -156.47227934 Ry
     estimated scf accuracy    <       0.00165603 Ry

     iteration #  5     ecut=   100.00 Ry     beta= 0.70
     Davidson diagonalization with overlap
     ethr =  3.45E-06,  avg # of iterations =  3.1

     total cpu time spent up to now is       87.9 secs

     total energy              =    -156.47285402 Ry
     estimated scf accuracy    <       0.00016256 Ry

     iteration #  6     ecut=   100.00 Ry     beta= 0.70
     Davidson diagonalization with overlap
     ethr =  3.39E-07,  avg # of iterations =  4.0

     total cpu time spent up to now is      103.7 secs

     total energy              =    -156.47291608 Ry
     estimated scf accuracy    <       0.00000106 Ry

     iteration #  7     ecut=   100.00 Ry     beta= 0.70
     Davidson diagonalization with overlap
     ethr =  2.22E-09,  avg # of iterations =  8.9

     total cpu time spent up to now is      135.9 secs

     total energy              =    -156.47292450 Ry
     estimated scf accuracy    <       0.00000098 Ry

     iteration #  8     ecut=   100.00 Ry     beta= 0.70
     Davidson diagonalization with overlap
     ethr =  2.05E-09,  avg # of iterations =  2.0

     total cpu time spent up to now is      149.7 secs

     total energy              =    -156.47292475 Ry
     estimated scf accuracy    <       0.00000004 Ry

     iteration #  9     ecut=   100.00 Ry     beta= 0.70
     Davidson diagonalization with overlap
     ethr =  9.17E-11,  avg # of iterations =  4.9

     total cpu time spent up to now is      166.6 secs

     total energy              =    -156.47292476 Ry
     estimated scf accuracy    <          3.7E-09 Ry

     iteration # 10     ecut=   100.00 Ry     beta= 0.70
     Davidson diagonalization with overlap
     ethr =  7.71E-12,  avg # of iterations =  4.9

     total cpu time spent up to now is      184.1 secs

     total energy              =    -156.47292476 Ry
     estimated scf accuracy    <          1.3E-09 Ry

     iteration # 11     ecut=   100.00 Ry     beta= 0.70
     Davidson diagonalization with overlap
     ethr =  2.76E-12,  avg # of iterations =  2.7

     total cpu time spent up to now is      198.1 secs

     End of self-consistent calculation

          k = 0.0000 0.0000 0.0000 ( 23525 PWs)   bands (ev):

   -23.5212 -23.5100  -9.1532  -9.0478  -8.8146  -8.7676  -8.7407  -8.6648
    -5.9095  -4.9178  -4.1281  -3.9924  -1.5926  -0.6604  -0.5395  -0.2228
     0.1786   0.2118   0.2756   0.3753   0.5534   0.9860   0.9949   1.0387

          k = 0.0000 0.0000 0.3611 ( 23508 PWs)   bands (ev):

   -23.5116 -23.5037  -9.0420  -9.0406  -9.0160  -8.9685  -8.7925  -8.7666
    -5.3464  -4.6131  -4.3359  -4.2550  -1.1749  -0.9111  -0.4573  -0.4099
    -0.2457  -0.1141   0.2710   0.5742   0.7607   0.8162   0.9030   1.0514

          k = 0.0000 0.0000-0.7221 ( 23488 PWs)   bands (ev):

   -23.4997 -23.4997  -9.2970  -9.2968  -8.8688  -8.8688  -8.8018  -8.8017
    -4.5801  -4.5796  -4.5342  -4.5336  -0.9406  -0.9401  -0.9305  -0.9289
     0.1590   0.1599   0.2812   0.2829   0.8677   0.8681   0.8847   0.8848

          k = 0.0000 0.2438 0.0000 ( 23457 PWs)   bands (ev):

   -23.5195 -23.5116  -9.1195  -9.0111  -8.8823  -8.8110  -8.7293  -8.6757
    -5.6866  -4.8141  -4.4468  -4.1399  -1.1998  -0.7392  -0.7322   0.0785
     0.1061   0.1169   0.4287   0.5633   0.6372   0.6518   0.8916   0.9654

          k = 0.0000 0.2438 0.3611 ( 23487 PWs)   bands (ev):

   -23.5105 -23.5048  -9.0968  -9.0526  -8.9522  -8.9343  -8.8048  -8.7937
    -5.2366  -4.6966  -4.3759  -4.2940  -0.9788  -0.9366  -0.7533  -0.1451
    -0.1015   0.0939   0.1130   0.6308   0.6968   0.7583   0.8622   0.9208

          k = 0.0000 0.2438-0.7221 ( 23492 PWs)   bands (ev):

   -23.4997 -23.4997  -9.3128  -9.3127  -8.8458  -8.8457  -8.8007  -8.8007
    -4.9256  -4.9256  -4.1735  -4.1735  -1.0796  -1.0789  -0.7314  -0.7306
     0.2478   0.2480   0.3136   0.3152   0.6809   0.6810   0.8767   0.8770

          k = 0.0000-0.4875 0.0000 ( 23460 PWs)   bands (ev):

   -23.5155 -23.5155  -9.0218  -9.0218  -8.9096  -8.9096  -8.7022  -8.7022
    -5.1384  -5.1384  -4.4626  -4.4626  -0.8699  -0.8699  -0.2382  -0.2382
     0.0142   0.0142   0.5479   0.5479   0.6938   0.6938   0.8130   0.8130

          k = 0.0000-0.4875 0.3611 ( 23492 PWs)   bands (ev):

   -23.5076 -23.5076  -9.0973  -9.0973  -8.8812  -8.8812  -8.8427  -8.8427
    -4.9649  -4.9649  -4.3616  -4.3616  -0.9232  -0.9232  -0.5044  -0.5044
     0.1600   0.1600   0.4542   0.4542   0.6074   0.6074   0.8340   0.8340

          k = 0.0000-0.4875-0.7221 ( 23476 PWs)   bands (ev):

   -23.4997 -23.4997  -9.3272  -9.3272  -8.8259  -8.8259  -8.7976  -8.7976
    -5.0754  -5.0754  -4.0086  -4.0086  -1.1780  -1.1780  -0.4568  -0.4568
     0.1591   0.1591   0.3868   0.3868   0.4740   0.4740   0.9150   0.9150

          k = 0.2500 0.0000 0.0000 ( 23514 PWs)   bands (ev):

   -23.5195 -23.5116  -9.1070  -9.0268  -8.8680  -8.8337  -8.7293  -8.6757
    -5.6960  -4.9343  -4.1805  -4.1677  -1.3897  -0.4941  -0.4577  -0.3513
     0.2295   0.2774   0.3355   0.4024   0.5065   0.5339   0.9448   0.9791

          k = 0.2500 0.0000 0.3611 ( 23507 PWs)   bands (ev):

   -23.5104 -23.5048  -9.0868  -9.0667  -8.9861  -8.9059  -8.8240  -8.7795
    -5.1845  -4.5853  -4.3971  -4.3763  -1.1470  -0.8984  -0.7533  -0.1938
    -0.1932   0.1122   0.3402   0.4810   0.6353   0.7638   0.9669   1.0007

          k = 0.2500 0.0000-0.7221 ( 23512 PWs)   bands (ev):

   -23.4997 -23.4997  -9.3188  -9.3187  -8.8515  -8.8515  -8.7979  -8.7979
    -4.7097  -4.7093  -4.3687  -4.3683  -1.4405  -1.4400  -0.4483  -0.4478
     0.1610   0.1614   0.5304   0.5317   0.6572   0.6572   0.9115   0.9119

          k = 0.2500 0.2438 0.0000 ( 23508 PWs)   bands (ev):

   -23.5183 -23.5127  -9.1412  -8.9986  -8.9328  -8.7757  -8.7211  -8.6832
    -5.5450  -4.8870  -4.4574  -4.1913  -1.0810  -0.7208  -0.5122  -0.0295
     0.0399   0.0957   0.4147   0.5726   0.5816   0.6745   0.7358   0.8944

          k = 0.2500 0.2438 0.3611 ( 23497 PWs)   bands (ev):

   -23.5096 -23.5056  -9.0906  -9.0423  -9.0321  -8.8809  -8.8389  -8.7706
    -5.0928  -4.6378  -4.4702  -4.3743  -1.1121  -0.8685  -0.7592  -0.1797
    -0.0230   0.1670   0.2704   0.5056   0.6072   0.7246   0.8860   0.9771

          k = 0.2500 0.2438-0.7221 ( 23488 PWs)   bands (ev):

   -23.4997 -23.4997  -9.3267  -9.2986  -8.8790  -8.8283  -8.8074  -8.7983
    -4.9436  -4.7281  -4.3398  -4.1174  -1.4164  -1.3234  -0.5297  -0.3957
     0.1054   0.1113   0.4970   0.5754   0.6586   0.7166   0.8587   0.8843

          k = 0.2500-0.4875 0.0000 ( 23472 PWs)   bands (ev):

   -23.5155 -23.5155  -9.1121  -9.1121  -8.8185  -8.8185  -8.7018  -8.7018
    -5.1580  -5.1580  -4.4282  -4.4282  -0.7774  -0.7774  -0.2475  -0.2475
    -0.0294  -0.0294   0.4736   0.4736   0.7376   0.7376   0.7470   0.7470

          k = 0.2500-0.4875 0.3611 ( 23502 PWs)   bands (ev):

   -23.5076 -23.5076  -9.0833  -9.0833  -8.9595  -8.9595  -8.7880  -8.7880
    -4.8666  -4.8666  -4.4362  -4.4362  -1.0211  -1.0211  -0.4122  -0.4122
     0.1238   0.1238   0.4673   0.4673   0.6232   0.6232   0.8565   0.8565

          k = 0.2500-0.4875-0.7221 ( 23504 PWs)   bands (ev):

   -23.4997 -23.4997  -9.3078  -9.3078  -8.8567  -8.8567  -8.8057  -8.8057
    -4.9489  -4.9489  -4.1016  -4.1016  -1.2938  -1.2938  -0.5249  -0.5249
     0.2310   0.2310   0.3657   0.3657   0.7180   0.7180   0.8718   0.8718

          k =-0.5000 0.0000 0.0000 ( 23496 PWs)   bands (ev):

   -23.5155 -23.5155  -8.9922  -8.9922  -8.9506  -8.9506  -8.7023  -8.7023
    -5.2275  -5.2275  -4.2726  -4.2726  -0.9423  -0.9423  -0.1091  -0.1091
     0.2783   0.2783   0.2865   0.2865   0.3792   0.3792   0.8214   0.8214

          k =-0.5000 0.0000 0.3611 ( 23476 PWs)   bands (ev):

   -23.5076 -23.5076  -9.1029  -9.1029  -8.9082  -8.9082  -8.8246  -8.8246
    -4.8068  -4.8068  -4.4617  -4.4617  -1.0753  -1.0753  -0.4799  -0.4799
     0.1286   0.1286   0.3305   0.3305   0.7267   0.7267   0.9548   0.9548

          k =-0.5000 0.0000-0.7221 ( 23532 PWs)   bands (ev):

   -23.4997 -23.4997  -9.3389  -9.3389  -8.8371  -8.8371  -8.7927  -8.7927
    -4.7678  -4.7678  -4.2709  -4.2709  -1.6653  -1.6653  -0.1176  -0.1176
     0.1620   0.1620   0.3308   0.3308   0.8590   0.8590   0.8602   0.8602

          k =-0.5000 0.2438 0.0000 ( 23526 PWs)   bands (ev):

   -23.5155 -23.5155  -9.1102  -9.1102  -8.8261  -8.8261  -8.7018  -8.7018
    -5.2042  -5.2042  -4.3315  -4.3315  -0.8297  -0.8297  -0.1160  -0.1160
     0.0414   0.0414   0.2432   0.2432   0.6413   0.6413   0.8023   0.8023

          k =-0.5000 0.2438 0.3611 ( 23496 PWs)   bands (ev):

   -23.5076 -23.5076  -9.0870  -9.0870  -8.9643  -8.9643  -8.7867  -8.7867
    -4.7646  -4.7646  -4.5088  -4.5088  -1.0821  -1.0821  -0.4460  -0.4460
     0.1630   0.1630   0.3772   0.3772   0.7190   0.7190   0.8825   0.8825

          k =-0.5000 0.2438-0.7221 ( 23492 PWs)   bands (ev):

   -23.4997 -23.4997  -9.3142  -9.3142  -8.8599  -8.8599  -8.8049  -8.8049
    -4.7753  -4.7753  -4.2525  -4.2525  -1.5516  -1.5516  -0.3465  -0.3465
     0.2069   0.2069   0.4136   0.4136   0.7814   0.7814   0.9314   0.9314

          k =-0.5000-0.4875 0.0000 ( 23500 PWs)   bands (ev):

   -23.5154 -23.5154  -9.1649  -9.1649  -8.7648  -8.7648  -8.7013  -8.7013
    -5.1783  -5.1783  -4.3917  -4.3917  -0.6712  -0.6712  -0.2711  -0.2711
    -0.0685  -0.0685   0.4337   0.4337   0.6452   0.6452   0.7769   0.7769

          k =-0.5000-0.4875 0.3611 ( 23476 PWs)   bands (ev):

   -23.5076 -23.5076  -9.0550  -9.0550  -9.0205  -9.0205  -8.7648  -8.7648
    -4.6978  -4.6978  -4.5801  -4.5801  -1.0720  -1.0720  -0.4820  -0.4820
     0.3231   0.3231   0.4633   0.4633   0.6145   0.6145   0.7937   0.7937

          k =-0.5000-0.4875-0.7221 ( 23528 PWs)   bands (ev):

   -23.4996 -23.4996  -9.2859  -9.2859  -8.8901  -8.8901  -8.8133  -8.8133
    -4.7832  -4.7832  -4.2332  -4.2332  -1.3794  -1.3794  -0.6617  -0.6617
     0.4472   0.4472   0.4934   0.4934   0.6409   0.6409   0.8943   0.8943

     highest occupied level (ev):     1.0514

!    total energy              =    -156.47292476 Ry
     estimated scf accuracy    <          4.3E-11 Ry

     The total energy is the sum of the following terms:
     one-electron contribution =     -20.07394018 Ry
     hartree contribution      =      24.95433760 Ry
     xc contribution           =     -49.27592098 Ry
     ewald contribution        =    -112.07740120 Ry

     convergence has been achieved in  11 iterations

     Forces acting on atoms (cartesian axes, Ry/au):

     atom    1 type  2   force =     0.00000000    0.00000000    0.00001471
     atom    2 type  2   force =     0.00000000    0.00000000   -0.00001471
     atom    3 type  1   force =    -0.00017500   -0.00084245   -0.00001155
     atom    4 type  1   force =     0.00017500    0.00084245   -0.00001155
     atom    5 type  1   force =    -0.00017500    0.00084245    0.00001155
     atom    6 type  1   force =     0.00017500   -0.00084245    0.00001155
     atom    7 type  3   force =    -0.00697239    0.00175333   -0.00001445
     atom    8 type  3   force =     0.00697239   -0.00175333   -0.00001445
     atom    9 type  3   force =    -0.00697239   -0.00175333    0.00001445
     atom   10 type  3   force =     0.00697239    0.00175333    0.00001445
     atom   11 type  3   force =     0.00460405    0.00556052    0.00000447
     atom   12 type  3   force =    -0.00460405   -0.00556052    0.00000447
     atom   13 type  3   force =     0.00460405   -0.00556052   -0.00000447
     atom   14 type  3   force =    -0.00460405    0.00556052   -0.00000447
     atom   15 type  3   force =     0.00087886   -0.00410355   -0.00622016
     atom   16 type  3   force =    -0.00087886    0.00410355   -0.00622016
     atom   17 type  3   force =     0.00087886    0.00410355    0.00622016
     atom   18 type  3   force =    -0.00087886   -0.00410355    0.00622016
     atom   19 type  3   force =    -0.00083767    0.00408423    0.00620847
     atom   20 type  3   force =     0.00083767   -0.00408423    0.00620847
     atom   21 type  3   force =    -0.00083767   -0.00408423   -0.00620847
     atom   22 type  3   force =     0.00083767    0.00408423   -0.00620847

     Total force =     0.029447     Total SCF correction =     0.000004


     Computing stress (Cartesian axis) and pressure

          total   stress  (Ry/bohr**3)                   (kbar)     P=       16.15
   0.00010194   0.00000000   0.00000000           15.00        0.00        0.00
   0.00000000   0.00010407   0.00000000            0.00       15.31        0.00
   0.00000000   0.00000000   0.00012337            0.00        0.00       18.15

     Volume is kept fixed: isostatic pressure set to zero

     BFGS Geometry Optimization
     Energy error            =      0.0E+00 Ry
     Gradient error          =      7.0E-03 Ry/Bohr
     Cell gradient error     =      2.0E+00 kbar

     number of scf cycles    =   1
     number of bfgs steps    =   0

     enthalpy           new  =    -156.4729247645 Ry

     new trust radius        =       0.0075034646 bohr
ibrav =      8
 celldm(1) =     12.51069911
 celldm(2) =      1.02562546
 celldm(3) =      0.69276512
Input lattice vectors:
     0.99980375     0.00000000     0.00000000
     0.00000000     1.02542418     0.00000000
     0.00000000     0.00000000     0.69262917
New lattice vectors in INITIAL alat:
     0.99980375     0.00000000     0.00000000
     0.00000000     1.02542418     0.00000000
     0.00000000     0.00000000     0.69262917
New lattice vectors in NEW alat (for information only):
     1.00000000     0.00000000     0.00000000
     0.00000000     1.02562546     0.00000000
     0.00000000     0.00000000     0.69276512
Discrepancy in bohr =     0.000000    0.000000    0.000000
     new conv_thr            =            1.0E-10 Ry

     new unit-cell volume =   1391.29603 a.u.^3 (   206.16880 Ang^3 )
     density =      2.69033 g/cm^3

CELL_PARAMETERS (alat= 12.51315479)
   0.999803752   0.000000000   0.000000000
   0.000000000   1.025424182   0.000000000
   0.000000000   0.000000000   0.692629170

ATOMIC_POSITIONS (crystal)
Ba               0.5000000000        0.5000000000        0.5001008636
Ba               0.0000000000        0.0000000000        0.9998991364
B                0.6102430307        0.2391367333        0.0000643240
B                0.3897569693        0.7608632667        0.0000643240
B                0.1102430307        0.2608632667        0.4999356760
B                0.8897569693        0.7391367333        0.4999356760
H                0.4335400478        0.2922923540        0.0002292659
H                0.5664599522        0.7077076460        0.0002292659
H                0.9335400478        0.2077076460        0.4997707341
H                0.0664599522        0.7922923540        0.4997707341
H                0.7224282045        0.3839883032       -0.0000078553
H                0.2775717955        0.6160116968       -0.0000078553
H                0.2224282045        0.1160116968        0.5000078553
H                0.7775717955        0.8839883032        0.5000078553
H                0.6393201593        0.1417746325        0.7797804846
H                0.3606798407        0.8582253675        0.7797804846
H                0.1393201593        0.3582253675        0.7202195154
H                0.8606798407        0.6417746325        0.7202195154
H                0.3604658880        0.8582741712        0.2202414273
H                0.6395341120        0.1417258288        0.2202414273
H                0.8604658880        0.6417258288        0.2797585727
H                0.1395341120        0.3582741712        0.2797585727



     Writing config-only to output data dir ./pwscf.save/ :
     XML data file
     NEW-OLD atomic charge density approx. for the potential

     total cpu time spent up to now is      227.5 secs

     Self-consistent Calculation

     iteration #  1     ecut=   100.00 Ry     beta= 0.70
     Davidson diagonalization with overlap
     ethr =  1.00E-06,  avg # of iterations =  3.0

     total cpu time spent up to now is      244.8 secs

     total energy              =    -156.47356480 Ry
     estimated scf accuracy    <       0.00019865 Ry

     iteration #  2     ecut=   100.00 Ry     beta= 0.70
     Davidson diagonalization with overlap
     ethr =  4.14E-07,  avg # of iterations =  2.0

     total cpu time spent up to now is      259.2 secs

     total energy              =    -156.47361640 Ry
     estimated scf accuracy    <       0.00003170 Ry

     iteration #  3     ecut=   100.00 Ry     beta= 0.70
     Davidson diagonalization with overlap
     ethr =  6.60E-08,  avg # of iterations =  2.0

     total cpu time spent up to now is      273.6 secs

     total energy              =    -156.47362098 Ry
     estimated scf accuracy    <       0.00000031 Ry

     iteration #  4     ecut=   100.00 Ry     beta= 0.70
     Davidson diagonalization with overlap
     ethr =  6.51E-10,  avg # of iterations =  3.5

     total cpu time spent up to now is      291.4 secs

     total energy              =    -156.47362113 Ry
     estimated scf accuracy    <       0.00000023 Ry

     iteration #  5     ecut=   100.00 Ry     beta= 0.70
     Davidson diagonalization with overlap
     ethr =  4.87E-10,  avg # of iterations =  2.0

     total cpu time spent up to now is      305.8 secs

     total energy              =    -156.47362117 Ry
     estimated scf accuracy    <          3.9E-09 Ry

     iteration #  6     ecut=   100.00 Ry     beta= 0.70
     Davidson diagonalization with overlap
     ethr =  8.03E-12,  avg # of iterations =  5.9

     total cpu time spent up to now is      327.7 secs

     total energy              =    -156.47362117 Ry
     estimated scf accuracy    <          1.7E-09 Ry

     iteration #  7     ecut=   100.00 Ry     beta= 0.70
     Davidson diagonalization with overlap
     ethr =  3.57E-12,  avg # of iterations =  2.1

     total cpu time spent up to now is      342.2 secs

     End of self-consistent calculation

          k = 0.0000 0.0000 0.0000 ( 23525 PWs)   bands (ev):

   -23.5142 -23.5030  -9.1457  -9.0410  -8.8078  -8.7612  -8.7345  -8.6585
    -5.8961  -4.8954  -4.1070  -3.9699  -1.5932  -0.6516  -0.5352  -0.2092
     0.1900   0.2167   0.2835   0.3864   0.5630   1.0020   1.0109   1.0559

          k = 0.0000 0.0000 0.3609 ( 23508 PWs)   bands (ev):

   -23.5047 -23.4968  -9.0348  -9.0336  -9.0087  -8.9620  -8.7859  -8.7602
    -5.3325  -4.5919  -4.3138  -4.2317  -1.1765  -0.9095  -0.4556  -0.4006
    -0.2375  -0.1054   0.2824   0.5882   0.7754   0.8321   0.9164   1.0674

          k = 0.0000 0.0000-0.7219 ( 23488 PWs)   bands (ev):

   -23.4928 -23.4928  -9.2891  -9.2889  -8.8625  -8.8625  -8.7953  -8.7953
    -4.5622  -4.5618  -4.5107  -4.5102  -0.9405  -0.9400  -0.9308  -0.9291
     0.1710   0.1719   0.2927   0.2945   0.8838   0.8841   0.8992   0.8994

          k = 0.0000 0.2438 0.0000 ( 23457 PWs)   bands (ev):

   -23.5125 -23.5046  -9.1121  -9.0042  -8.8755  -8.8046  -8.7231  -8.6694
    -5.6726  -4.7917  -4.4284  -4.1175  -1.1974  -0.7350  -0.7255   0.0886
     0.1148   0.1311   0.4376   0.5738   0.6512   0.6625   0.9074   0.9812

          k = 0.0000 0.2438 0.3609 ( 23487 PWs)   bands (ev):

   -23.5035 -23.4979  -9.0897  -9.0454  -8.9451  -8.9277  -8.7982  -8.7873
    -5.2216  -4.6760  -4.3548  -4.2714  -0.9786  -0.9352  -0.7502  -0.1380
    -0.0926   0.1066   0.1226   0.6447   0.7109   0.7734   0.8765   0.9357

          k = 0.0000 0.2438-0.7219 ( 23492 PWs)   bands (ev):

   -23.4928 -23.4928  -9.3049  -9.3048  -8.8395  -8.8395  -8.7942  -8.7942
    -4.9050  -4.9050  -4.1529  -4.1529  -1.0795  -1.0789  -0.7307  -0.7299
     0.2600   0.2603   0.3257   0.3273   0.6947   0.6948   0.8922   0.8925

          k = 0.0000-0.4876 0.0000 ( 23460 PWs)   bands (ev):

   -23.5086 -23.5086  -9.0145  -9.0145  -8.9033  -8.9033  -8.6960  -8.6960
    -5.1224  -5.1224  -4.4407  -4.4407  -0.8663  -0.8663  -0.2292  -0.2292
     0.0233   0.0233   0.5634   0.5634   0.7049   0.7049   0.8266   0.8266

          k = 0.0000-0.4876 0.3609 ( 23492 PWs)   bands (ev):

   -23.5007 -23.5007  -9.0902  -9.0902  -8.8741  -8.8741  -8.8365  -8.8365
    -4.9472  -4.9472  -4.3402  -4.3402  -0.9221  -0.9221  -0.4992  -0.4992
     0.1712   0.1712   0.4655   0.4655   0.6225   0.6225   0.8485   0.8485

          k = 0.0000-0.4876-0.7219 ( 23476 PWs)   bands (ev):

   -23.4928 -23.4928  -9.3194  -9.3194  -8.8198  -8.8198  -8.7911  -8.7911
    -5.0547  -5.0547  -3.9883  -3.9883  -1.1781  -1.1781  -0.4558  -0.4558
     0.1721   0.1721   0.3979   0.3979   0.4881   0.4881   0.9307   0.9307

          k = 0.2500 0.0000 0.0000 ( 23514 PWs)   bands (ev):

   -23.5125 -23.5046  -9.0996  -9.0201  -8.8611  -8.8273  -8.7231  -8.6694
    -5.6818  -4.9134  -4.1591  -4.1460  -1.3893  -0.4874  -0.4521  -0.3411
     0.2396   0.2867   0.3452   0.4139   0.5172   0.5471   0.9608   0.9962

          k = 0.2500 0.0000 0.3609 ( 23507 PWs)   bands (ev):

   -23.5035 -23.4979  -9.0797  -9.0595  -8.9791  -8.8992  -8.8175  -8.7730
    -5.1697  -4.5646  -4.3750  -4.3542  -1.1489  -0.8950  -0.7527  -0.1853
    -0.1832   0.1222   0.3532   0.4939   0.6490   0.7776   0.9829   1.0155

          k = 0.2500 0.0000-0.7219 ( 23512 PWs)   bands (ev):

   -23.4928 -23.4928  -9.3109  -9.3108  -8.8453  -8.8452  -8.7914  -8.7914
    -4.6876  -4.6873  -4.3491  -4.3488  -1.4425  -1.4420  -0.4456  -0.4452
     0.1731   0.1735   0.5429   0.5442   0.6709   0.6710   0.9271   0.9275

          k = 0.2500 0.2438 0.0000 ( 23508 PWs)   bands (ev):

   -23.5113 -23.5057  -9.1341  -8.9915  -8.9263  -8.7691  -8.7149  -8.6769
    -5.5300  -4.8664  -4.4376  -4.1704  -1.0777  -0.7157  -0.5045  -0.0205
     0.0488   0.1046   0.4280   0.5833   0.5953   0.6859   0.7509   0.9092

          k = 0.2500 0.2438 0.3609 ( 23497 PWs)   bands (ev):

   -23.5027 -23.4987  -9.0834  -9.0352  -9.0253  -8.8737  -8.8326  -8.7641
    -5.0771  -4.6168  -4.4500  -4.3522  -1.1127  -0.8679  -0.7550  -0.1707
    -0.0134   0.1776   0.2826   0.5178   0.6213   0.7390   0.9009   0.9918

          k = 0.2500 0.2438-0.7219 ( 23488 PWs)   bands (ev):

   -23.4928 -23.4928  -9.3188  -9.2907  -8.8727  -8.8221  -8.8010  -8.7918
    -4.9222  -4.7069  -4.3195  -4.0973  -1.4184  -1.3255  -0.5262  -0.3932
     0.1171   0.1232   0.5088   0.5880   0.6729   0.7312   0.8732   0.9006

          k = 0.2500-0.4876 0.0000 ( 23472 PWs)   bands (ev):

   -23.5085 -23.5085  -9.1051  -9.1051  -8.8119  -8.8119  -8.6955  -8.6955
    -5.1406  -5.1406  -4.4080  -4.4080  -0.7720  -0.7720  -0.2384  -0.2384
    -0.0208  -0.0208   0.4859   0.4859   0.7492   0.7492   0.7618   0.7618

          k = 0.2500-0.4876 0.3609 ( 23502 PWs)   bands (ev):

   -23.5007 -23.5007  -9.0763  -9.0763  -8.9526  -8.9526  -8.7815  -8.7815
    -4.8484  -4.8484  -4.4153  -4.4153  -1.0208  -1.0208  -0.4052  -0.4052
     0.1340   0.1340   0.4799   0.4799   0.6369   0.6369   0.8711   0.8711

          k = 0.2500-0.4876-0.7219 ( 23504 PWs)   bands (ev):

   -23.4928 -23.4928  -9.2999  -9.2999  -8.8505  -8.8505  -8.7992  -8.7992
    -4.9279  -4.9279  -4.0812  -4.0812  -1.2956  -1.2956  -0.5214  -0.5214
     0.2436   0.2436   0.3768   0.3768   0.7325   0.7325   0.8871   0.8871

          k =-0.5001 0.0000 0.0000 ( 23496 PWs)   bands (ev):

   -23.5085 -23.5085  -8.9849  -8.9849  -8.9442  -8.9442  -8.6960  -8.6960
    -5.2108  -5.2108  -4.2507  -4.2507  -0.9402  -0.9402  -0.1005  -0.1005
     0.2861   0.2861   0.3003   0.3003   0.3911   0.3911   0.8374   0.8374

          k =-0.5001 0.0000 0.3609 ( 23476 PWs)   bands (ev):

   -23.5007 -23.5007  -9.0957  -9.0957  -8.9012  -8.9012  -8.8182  -8.8182
    -4.7896  -4.7896  -4.4393  -4.4393  -1.0761  -1.0761  -0.4739  -0.4739
     0.1402   0.1402   0.3428   0.3428   0.7402   0.7402   0.9704   0.9704

          k =-0.5001 0.0000-0.7219 ( 23532 PWs)   bands (ev):

   -23.4928 -23.4928  -9.3310  -9.3310  -8.8309  -8.8309  -8.7862  -8.7862
    -4.7450  -4.7450  -4.2518  -4.2518  -1.6682  -1.6682  -0.1140  -0.1140
     0.1741   0.1741   0.3434   0.3434   0.8736   0.8736   0.8753   0.8753

          k =-0.5001 0.2438 0.0000 ( 23526 PWs)   bands (ev):

   -23.5085 -23.5085  -9.1032  -9.1032  -8.8194  -8.8194  -8.6955  -8.6955
    -5.1866  -5.1866  -4.3111  -4.3111  -0.8250  -0.8250  -0.1074  -0.1074
     0.0499   0.0499   0.2552   0.2552   0.6528   0.6528   0.8178   0.8178

          k =-0.5001 0.2438 0.3609 ( 23496 PWs)   bands (ev):

   -23.5006 -23.5006  -9.0799  -9.0799  -8.9573  -8.9573  -8.7802  -8.7802
    -4.7467  -4.7467  -4.4873  -4.4873  -1.0825  -1.0825  -0.4392  -0.4392
     0.1743   0.1743   0.3895   0.3895   0.7330   0.7330   0.8970   0.8970

          k =-0.5001 0.2438-0.7219 ( 23492 PWs)   bands (ev):

   -23.4927 -23.4927  -9.3063  -9.3063  -8.8537  -8.8537  -8.7984  -8.7984
    -4.7531  -4.7531  -4.2328  -4.2328  -1.5545  -1.5545  -0.3422  -0.3422
     0.2181   0.2181   0.4267   0.4267   0.7958   0.7958   0.9466   0.9466

          k =-0.5001-0.4876 0.0000 ( 23500 PWs)   bands (ev):

   -23.5085 -23.5085  -9.1579  -9.1579  -8.7582  -8.7582  -8.6950  -8.6950
    -5.1597  -5.1597  -4.3730  -4.3730  -0.6622  -0.6622  -0.2650  -0.2650
    -0.0603  -0.0603   0.4464   0.4464   0.6587   0.6587   0.7889   0.7889

          k =-0.5001-0.4876 0.3609 ( 23476 PWs)   bands (ev):

   -23.5006 -23.5006  -9.0483  -9.0483  -9.0132  -9.0132  -8.7583  -8.7583
    -4.6789  -4.6789  -4.5599  -4.5599  -1.0721  -1.0721  -0.4746  -0.4746
     0.3339   0.3339   0.4776   0.4776   0.6280   0.6280   0.8065   0.8065

          k =-0.5001-0.4876-0.7219 ( 23528 PWs)   bands (ev):

   -23.4927 -23.4927  -9.2780  -9.2780  -8.8838  -8.8838  -8.8069  -8.8069
    -4.7617  -4.7617  -4.2129  -4.2129  -1.3823  -1.3823  -0.6579  -0.6579
     0.4601   0.4601   0.5078   0.5078   0.6539   0.6539   0.9087   0.9087

     highest occupied level (ev):     1.0674

!    total energy              =    -156.47362117 Ry
     estimated scf accuracy    <          9.2E-12 Ry

     The total energy is the sum of the following terms:
     one-electron contribution =     -19.85160022 Ry
     hartree contribution      =      24.84398936 Ry
     xc contribution           =     -49.24827874 Ry
     ewald contribution        =    -112.21773157 Ry

     convergence has been achieved in   7 iterations

     Forces acting on atoms (cartesian axes, Ry/au):

     atom    1 type  2   force =     0.00000000    0.00000000    0.00001232
     atom    2 type  2   force =     0.00000000    0.00000000   -0.00001232
     atom    3 type  1   force =    -0.00022174   -0.00092847   -0.00001181
     atom    4 type  1   force =     0.00022174    0.00092847   -0.00001181
     atom    5 type  1   force =    -0.00022174    0.00092847    0.00001181
     atom    6 type  1   force =     0.00022174   -0.00092847    0.00001181
     atom    7 type  3   force =    -0.00424182    0.00093960   -0.00001728
     atom    8 type  3   force =     0.00424182   -0.00093960   -0.00001728
     atom    9 type  3   force =    -0.00424182   -0.00093960    0.00001728
     atom   10 type  3   force =     0.00424182    0.00093960    0.00001728
     atom   11 type  3   force =     0.00279365    0.00313124    0.00000469
     atom   12 type  3   force =    -0.00279365   -0.00313124    0.00000469
     atom   13 type  3   force =     0.00279365   -0.00313124   -0.00000469
     atom   14 type  3   force =    -0.00279365    0.00313124   -0.00000469
     atom   15 type  3   force =     0.00039616   -0.00245921   -0.00357233
     atom   16 type  3   force =    -0.00039616    0.00245921   -0.00357233
     atom   17 type  3   force =     0.00039616    0.00245921    0.00357233
     atom   18 type  3   force =    -0.00039616   -0.00245921    0.00357233
     atom   19 type  3   force =    -0.00035349    0.00244220    0.00356445
     atom   20 type  3   force =     0.00035349   -0.00244220    0.00356445
     atom   21 type  3   force =    -0.00035349   -0.00244220   -0.00356445
     atom   22 type  3   force =     0.00035349    0.00244220   -0.00356445

     Total force =     0.017339     Total SCF correction =     0.000001


     Computing stress (Cartesian axis) and pressure

          total   stress  (Ry/bohr**3)                   (kbar)     P=       12.47
   0.00007915   0.00000000   0.00000000           11.64        0.00        0.00
   0.00000000   0.00007996   0.00000000            0.00       11.76        0.00
   0.00000000   0.00000000   0.00009527            0.00        0.00       14.02

     Volume is kept fixed: isostatic pressure set to zero
     Energy error            =      7.0E-04 Ry
     Gradient error          =      4.2E-03 Ry/Bohr
     Cell gradient error     =      1.5E+00 kbar

     number of scf cycles    =   2
     number of bfgs steps    =   1

     enthalpy           old  =    -156.4729247645 Ry
     enthalpy           new  =    -156.4736211739 Ry

     CASE: enthalpy          _new < enthalpy          _old

     new trust radius        =       0.0082553610 bohr
ibrav =      8
 celldm(1) =     12.50735902
 celldm(2) =      1.02566511
 celldm(3) =      0.69329348
Input lattice vectors:
     0.99953683     0.00000000     0.00000000
     0.00000000     1.02519004     0.00000000
     0.00000000     0.00000000     0.69297237
New lattice vectors in INITIAL alat:
     0.99953683     0.00000000     0.00000000
     0.00000000     1.02519004     0.00000000
     0.00000000     0.00000000     0.69297237
New lattice vectors in NEW alat (for information only):
     1.00000000     0.00000000     0.00000000
     0.00000000     1.02566511     0.00000000
     0.00000000     0.00000000     0.69329348
Discrepancy in bohr =     0.000000    0.000000    0.000000
     new conv_thr            =            7.0E-11 Ry

     new unit-cell volume =   1391.29603 a.u.^3 (   206.16880 Ang^3 )
     density =      2.69033 g/cm^3

CELL_PARAMETERS (alat= 12.51315479)
   0.999536825   0.000000000   0.000000000
   0.000000000   1.025190043   0.000000000
   0.000000000   0.000000000   0.692972366

ATOMIC_POSITIONS (crystal)
Ba               0.5000000000        0.5000000000        0.5001035523
Ba               0.0000000000        0.0000000000        0.9998964477
B                0.6102095928        0.2390001380        0.0000617489
B                0.3897904072        0.7609998620        0.0000617489
B                0.1102095928        0.2609998620        0.4999382511
B                0.8897904072        0.7390001380        0.4999382511
H                0.4328980352        0.2924311592        0.0002255007
H                0.5671019648        0.7075688408        0.0002255007
H                0.9328980352        0.2075688408        0.4997744993
H                0.0671019648        0.7924311592        0.4997744993
H                0.7228510404        0.3844506979       -0.0000068322
H                0.2771489596        0.6155493021       -0.0000068322
H                0.2228510404        0.1155493021        0.5000068322
H                0.7771489596        0.8844506979        0.5000068322
H                0.6393802673        0.1414116461        0.7789988517
H                0.3606197327        0.8585883539        0.7789988517
H                0.1393802673        0.3585883539        0.7210011483
H                0.8606197327        0.6414116461        0.7210011483
H                0.3604122182        0.8586346527        0.2210213389
H                0.6395877818        0.1413653473        0.2210213389
H                0.8604122182        0.6413653473        0.2789786611
H                0.1395877818        0.3586346527        0.2789786611



     Writing config-only to output data dir ./pwscf.save/ :
     XML data file
     NEW-OLD atomic charge density approx. for the potential

     total cpu time spent up to now is      371.6 secs

     Self-consistent Calculation

     iteration #  1     ecut=   100.00 Ry     beta= 0.70
     Davidson diagonalization with overlap
     ethr =  1.00E-06,  avg # of iterations =  3.0

     total cpu time spent up to now is      389.5 secs

     total energy              =    -156.47391418 Ry
     estimated scf accuracy    <       0.00024287 Ry

     iteration #  2     ecut=   100.00 Ry     beta= 0.70
     Davidson diagonalization with overlap
     ethr =  5.06E-07,  avg # of iterations =  2.0

     total cpu time spent up to now is      403.9 secs

     total energy              =    -156.47397735 Ry
     estimated scf accuracy    <       0.00003868 Ry

     iteration #  3     ecut=   100.00 Ry     beta= 0.70
     Davidson diagonalization with overlap
     ethr =  8.06E-08,  avg # of iterations =  2.0

     total cpu time spent up to now is      418.3 secs

     total energy              =    -156.47398291 Ry
     estimated scf accuracy    <       0.00000039 Ry

     iteration #  4     ecut=   100.00 Ry     beta= 0.70
     Davidson diagonalization with overlap
     ethr =  8.14E-10,  avg # of iterations =  3.5

     total cpu time spent up to now is      436.2 secs

     total energy              =    -156.47398311 Ry
     estimated scf accuracy    <       0.00000028 Ry

     iteration #  5     ecut=   100.00 Ry     beta= 0.70
     Davidson diagonalization with overlap
     ethr =  5.92E-10,  avg # of iterations =  2.0

     total cpu time spent up to now is      450.6 secs

     total energy              =    -156.47398316 Ry
     estimated scf accuracy    <          2.6E-09 Ry

     iteration #  6     ecut=   100.00 Ry     beta= 0.70
     Davidson diagonalization with overlap
     ethr =  5.35E-12,  avg # of iterations =  6.4

     total cpu time spent up to now is      475.3 secs

     total energy              =    -156.47398316 Ry
     estimated scf accuracy    <          1.3E-09 Ry

     iteration #  7     ecut=   100.00 Ry     beta= 0.70
     Davidson diagonalization with overlap
     ethr =  2.81E-12,  avg # of iterations =  2.1

     total cpu time spent up to now is      489.6 secs

     End of self-consistent calculation

          k = 0.0000 0.0000 0.0000 ( 23525 PWs)   bands (ev):

   -23.5068 -23.4955  -9.1376  -9.0337  -8.8005  -8.7542  -8.7279  -8.6516
    -5.8811  -4.8706  -4.0836  -3.9447  -1.5930  -0.6409  -0.5299  -0.1932
     0.2011   0.2240   0.2901   0.3972   0.5715   1.0201   1.0302   1.0767

          k = 0.0000 0.0000 0.3608 ( 23508 PWs)   bands (ev):

   -23.4973 -23.4893  -9.0267  -9.0260  -9.0003  -8.9550  -8.7788  -8.7534
    -5.3174  -4.5687  -4.2890  -4.2055  -1.1781  -0.9073  -0.4532  -0.3895
    -0.2294  -0.0969   0.2950   0.6036   0.7930   0.8502   0.9313   1.0861

          k = 0.0000 0.0000-0.7215 ( 23488 PWs)   bands (ev):

   -23.4855 -23.4855  -9.2798  -9.2796  -8.8559  -8.8559  -8.7884  -8.7883
    -4.5432  -4.5427  -4.4841  -4.4835  -0.9414  -0.9408  -0.9305  -0.9289
     0.1855   0.1863   0.3055   0.3073   0.9024   0.9026   0.9154   0.9156

          k = 0.0000 0.2439 0.0000 ( 23457 PWs)   bands (ev):

   -23.5051 -23.4972  -9.1040  -8.9968  -8.8682  -8.7976  -8.7165  -8.6625
    -5.6570  -4.7666  -4.4083  -4.0926  -1.1938  -0.7297  -0.7171   0.0980
     0.1226   0.1478   0.4494   0.5838   0.6684   0.6725   0.9254   1.0002

          k = 0.0000 0.2439 0.3608 ( 23487 PWs)   bands (ev):

   -23.4961 -23.4905  -9.0819  -9.0372  -8.9372  -8.9206  -8.7910  -8.7805
    -5.2054  -4.6534  -4.3312  -4.2460  -0.9784  -0.9334  -0.7462  -0.1314
    -0.0828   0.1210   0.1329   0.6601   0.7275   0.7908   0.8925   0.9531

          k = 0.0000 0.2439-0.7215 ( 23492 PWs)   bands (ev):

   -23.4855 -23.4855  -9.2958  -9.2956  -8.8329  -8.8329  -8.7872  -8.7872
    -4.8823  -4.8822  -4.1302  -4.1302  -1.0792  -1.0786  -0.7308  -0.7300
     0.2745   0.2747   0.3393   0.3409   0.7102   0.7103   0.9102   0.9105

          k = 0.0000-0.4877 0.0000 ( 23460 PWs)   bands (ev):

   -23.5011 -23.5011  -9.0065  -9.0065  -8.8964  -8.8964  -8.6892  -8.6892
    -5.1046  -5.1046  -4.4165  -4.4165  -0.8617  -0.8617  -0.2178  -0.2178
     0.0314   0.0314   0.5816   0.5816   0.7154   0.7154   0.8432   0.8432

          k = 0.0000-0.4877 0.3608 ( 23492 PWs)   bands (ev):

   -23.4933 -23.4933  -9.0822  -9.0822  -8.8662  -8.8662  -8.8299  -8.8299
    -4.9279  -4.9279  -4.3164  -4.3164  -0.9205  -0.9205  -0.4934  -0.4934
     0.1832   0.1832   0.4775   0.4775   0.6406   0.6406   0.8650   0.8650

          k = 0.0000-0.4877-0.7215 ( 23476 PWs)   bands (ev):

   -23.4854 -23.4854  -9.3103  -9.3103  -8.8133  -8.8133  -8.7840  -8.7840
    -5.0318  -5.0318  -3.9659  -3.9659  -1.1779  -1.1779  -0.4559  -0.4559
     0.1873   0.1873   0.4111   0.4111   0.5038   0.5038   0.9491   0.9491

          k = 0.2501 0.0000 0.0000 ( 23514 PWs)   bands (ev):

   -23.5051 -23.4971  -9.0915  -9.0128  -8.8536  -8.8204  -8.7165  -8.6625
    -5.6659  -4.8900  -4.1354  -4.1220  -1.3882  -0.4790  -0.4454  -0.3286
     0.2487   0.2954   0.3542   0.4282   0.5272   0.5625   0.9800   1.0171

          k = 0.2501 0.0000 0.3608 ( 23507 PWs)   bands (ev):

   -23.4961 -23.4905  -9.0718  -9.0514  -8.9714  -8.8918  -8.8104  -8.7661
    -5.1535  -4.5419  -4.3501  -4.3294  -1.1510  -0.8910  -0.7521  -0.1764
    -0.1711   0.1325   0.3676   0.5088   0.6637   0.7933   1.0018   1.0325

          k = 0.2501 0.0000-0.7215 ( 23512 PWs)   bands (ev):

   -23.4854 -23.4854  -9.3017  -9.3016  -8.8387  -8.8386  -8.7845  -8.7844
    -4.6630  -4.6627  -4.3278  -4.3274  -1.4450  -1.4445  -0.4431  -0.4428
     0.1876   0.1880   0.5570   0.5584   0.6863   0.6865   0.9449   0.9453

          k = 0.2501 0.2439 0.0000 ( 23508 PWs)   bands (ev):

   -23.5039 -23.4983  -9.1263  -8.9837  -8.9192  -8.7620  -8.7082  -8.6700
    -5.5131  -4.8432  -4.4160  -4.1471  -1.0732  -0.7094  -0.4950  -0.0095
     0.0569   0.1127   0.4439   0.5936   0.6119   0.6967   0.7692   0.9269

          k = 0.2501 0.2439 0.3608 ( 23497 PWs)   bands (ev):

   -23.4953 -23.4913  -9.0754  -9.0271  -9.0180  -8.8659  -8.8258  -8.7572
    -5.0599  -4.5938  -4.4275  -4.3274  -1.1135  -0.8670  -0.7500  -0.1610
    -0.0027   0.1888   0.2962   0.5318   0.6374   0.7555   0.9179   1.0088

          k = 0.2501 0.2439-0.7215 ( 23488 PWs)   bands (ev):

   -23.4854 -23.4854  -9.3096  -9.2815  -8.8662  -8.8156  -8.7941  -8.7847
    -4.8984  -4.6834  -4.2971  -4.0753  -1.4206  -1.3278  -0.5229  -0.3912
     0.1310   0.1373   0.5214   0.6020   0.6904   0.7475   0.8890   0.9201

          k = 0.2501-0.4877 0.0000 ( 23472 PWs)   bands (ev):

   -23.5011 -23.5011  -9.0975  -9.0975  -8.8047  -8.8047  -8.6887  -8.6887
    -5.1210  -5.1210  -4.3859  -4.3859  -0.7654  -0.7654  -0.2271  -0.2271
    -0.0132  -0.0132   0.5009   0.5009   0.7603   0.7603   0.7794   0.7794

          k = 0.2501-0.4877 0.3608 ( 23502 PWs)   bands (ev):

   -23.4933 -23.4933  -9.0685  -9.0685  -8.9450  -8.9450  -8.7745  -8.7745
    -4.8284  -4.8284  -4.3920  -4.3920  -1.0203  -1.0203  -0.3973  -0.3973
     0.1451   0.1451   0.4940   0.4940   0.6532   0.6532   0.8875   0.8875

          k = 0.2501-0.4877-0.7215 ( 23504 PWs)   bands (ev):

   -23.4854 -23.4854  -9.2908  -9.2908  -8.8440  -8.8440  -8.7922  -8.7922
    -4.9046  -4.9046  -4.0587  -4.0587  -1.2975  -1.2975  -0.5184  -0.5184
     0.2580   0.2580   0.3898   0.3898   0.7488   0.7488   0.9051   0.9051

          k =-0.5002 0.0000 0.0000 ( 23496 PWs)   bands (ev):

   -23.5011 -23.5011  -8.9768  -8.9768  -8.9375  -8.9375  -8.6893  -8.6893
    -5.1920  -5.1920  -4.2265  -4.2265  -0.9368  -0.9368  -0.0907  -0.0907
     0.2928   0.2928   0.3168   0.3168   0.4028   0.4028   0.8571   0.8571

          k =-0.5002 0.0000 0.3608 ( 23476 PWs)   bands (ev):

   -23.4933 -23.4933  -9.0878  -9.0878  -8.8937  -8.8937  -8.8112  -8.8112
    -4.7706  -4.7706  -4.4144  -4.4144  -1.0772  -1.0772  -0.4671  -0.4671
     0.1535   0.1535   0.3564   0.3564   0.7547   0.7547   0.9889   0.9889

          k =-0.5002 0.0000-0.7215 ( 23532 PWs)   bands (ev):

   -23.4854 -23.4854  -9.3219  -9.3219  -8.8243  -8.8243  -8.7792  -8.7792
    -4.7193  -4.7193  -4.2312  -4.2312  -1.6718  -1.6718  -0.1106  -0.1106
     0.1886   0.1886   0.3575   0.3575   0.8885   0.8885   0.8944   0.8944

          k =-0.5002 0.2439 0.0000 ( 23526 PWs)   bands (ev):

   -23.5010 -23.5010  -9.0956  -9.0956  -8.8122  -8.8122  -8.6888  -8.6888
    -5.1668  -5.1668  -4.2888  -4.2888  -0.8189  -0.8189  -0.0969  -0.0969
     0.0575   0.0575   0.2697   0.2697   0.6638   0.6638   0.8367   0.8367

          k =-0.5002 0.2439 0.3608 ( 23496 PWs)   bands (ev):

   -23.4932 -23.4932  -9.0721  -9.0721  -8.9497  -8.9497  -8.7732  -8.7732
    -4.7270  -4.7270  -4.4634  -4.4634  -1.0830  -1.0830  -0.4316  -0.4316
     0.1875   0.1875   0.4028   0.4028   0.7484   0.7484   0.9140   0.9140

          k =-0.5002 0.2439-0.7215 ( 23492 PWs)   bands (ev):

   -23.4854 -23.4854  -9.2971  -9.2971  -8.8471  -8.8471  -8.7915  -8.7915
    -4.7282  -4.7282  -4.2113  -4.2113  -1.5579  -1.5579  -0.3380  -0.3380
     0.2316   0.2316   0.4411   0.4411   0.8128   0.8128   0.9638   0.9638

          k =-0.5002-0.4877 0.0000 ( 23500 PWs)   bands (ev):

   -23.5010 -23.5010  -9.1504  -9.1504  -8.7511  -8.7511  -8.6883  -8.6883
    -5.1386  -5.1386  -4.3526  -4.3526  -0.6515  -0.6515  -0.2570  -0.2570
    -0.0530  -0.0530   0.4623   0.4623   0.6742   0.6742   0.8005   0.8005

          k =-0.5002-0.4877 0.3608 ( 23476 PWs)   bands (ev):

   -23.4932 -23.4932  -9.0412  -9.0412  -9.0049  -9.0049  -8.7513  -8.7513
    -4.6578  -4.6578  -4.5375  -4.5375  -1.0721  -1.0721  -0.4666  -0.4666
     0.3459   0.3459   0.4940   0.4940   0.6439   0.6439   0.8202   0.8202

          k =-0.5002-0.4877-0.7215 ( 23528 PWs)   bands (ev):

   -23.4854 -23.4854  -9.2686  -9.2686  -8.8773  -8.8773  -8.8001  -8.8001
    -4.7376  -4.7376  -4.1907  -4.1907  -1.3855  -1.3855  -0.6544  -0.6544
     0.4740   0.4740   0.5244   0.5244   0.6702   0.6702   0.9245   0.9245

     highest occupied level (ev):     1.0861

!    total energy              =    -156.47398316 Ry
     estimated scf accuracy    <          3.8E-11 Ry

     The total energy is the sum of the following terms:
     one-electron contribution =     -19.59814095 Ry
     hartree contribution      =      24.71824903 Ry
     xc contribution           =     -49.21760288 Ry
     ewald contribution        =    -112.37648836 Ry

     convergence has been achieved in   7 iterations

     Forces acting on atoms (cartesian axes, Ry/au):

     atom    1 type  2   force =     0.00000000    0.00000000    0.00000782
     atom    2 type  2   force =     0.00000000    0.00000000   -0.00000782
     atom    3 type  1   force =    -0.00027143   -0.00059261   -0.00000935
     atom    4 type  1   force =     0.00027143    0.00059261   -0.00000935
     atom    5 type  1   force =    -0.00027143    0.00059261    0.00000935
     atom    6 type  1   force =     0.00027143   -0.00059261    0.00000935
     atom    7 type  3   force =    -0.00122308    0.00003308   -0.00002071
     atom    8 type  3   force =     0.00122308   -0.00003308   -0.00002071
     atom    9 type  3   force =    -0.00122308   -0.00003308    0.00002071
     atom   10 type  3   force =     0.00122308    0.00003308    0.00002071
     atom   11 type  3   force =     0.00071063    0.00034564    0.00000448
     atom   12 type  3   force =    -0.00071063   -0.00034564    0.00000448
     atom   13 type  3   force =     0.00071063   -0.00034564   -0.00000448
     atom   14 type  3   force =    -0.00071063    0.00034564   -0.00000448
     atom   15 type  3   force =    -0.00010564   -0.00078681   -0.00077035
     atom   16 type  3   force =     0.00010564    0.00078681   -0.00077035
     atom   17 type  3   force =    -0.00010564    0.00078681    0.00077035
     atom   18 type  3   force =     0.00010564   -0.00078681    0.00077035
     atom   19 type  3   force =     0.00014853    0.00077268    0.00076553
     atom   20 type  3   force =    -0.00014853   -0.00077268    0.00076553
     atom   21 type  3   force =     0.00014853   -0.00077268   -0.00076553
     atom   22 type  3   force =    -0.00014853    0.00077268   -0.00076553

     Total force =     0.004461     Total SCF correction =     0.000003


     Computing stress (Cartesian axis) and pressure

          total   stress  (Ry/bohr**3)                   (kbar)     P=        8.42
   0.00005355   0.00000000   0.00000000            7.88        0.00        0.00
   0.00000000   0.00005354   0.00000000            0.00        7.88        0.00
   0.00000000   0.00000000   0.00006462            0.00        0.00        9.51

     Volume is kept fixed: isostatic pressure set to zero
     Energy error            =      3.6E-04 Ry
     Gradient error          =      1.2E-03 Ry/Bohr
     Cell gradient error     =      1.1E+00 kbar

     number of scf cycles    =   3
     number of bfgs steps    =   2

     enthalpy           old  =    -156.4736211739 Ry
     enthalpy           new  =    -156.4739831631 Ry

     CASE: enthalpy          _new < enthalpy          _old

     new trust radius        =       0.0029960992 bohr
ibrav =      8
 celldm(1) =     12.50526822
 celldm(2) =      1.02567168
 celldm(3) =      0.69363684
Input lattice vectors:
     0.99936974     0.00000000     0.00000000
     0.00000000     1.02502524     0.00000000
     0.00000000     0.00000000     0.69319966
New lattice vectors in INITIAL alat:
     0.99936974     0.00000000     0.00000000
     0.00000000     1.02502524     0.00000000
     0.00000000     0.00000000     0.69319966
New lattice vectors in NEW alat (for information only):
     1.00000000     0.00000000     0.00000000
     0.00000000     1.02567168     0.00000000
     0.00000000     0.00000000     0.69363684
Discrepancy in bohr =     0.000000    0.000000    0.000000
     new conv_thr            =            3.6E-11 Ry

     new unit-cell volume =   1391.29603 a.u.^3 (   206.16880 Ang^3 )
     density =      2.69033 g/cm^3

CELL_PARAMETERS (alat= 12.51315479)
   0.999369737   0.000000000   0.000000000
   0.000000000   1.025025235   0.000000000
   0.000000000   0.000000000   0.693199664

ATOMIC_POSITIONS (crystal)
Ba               0.5000000000        0.5000000000        0.5001052010
Ba               0.0000000000        0.0000000000        0.9998947990
B                0.6101752323        0.2389161994        0.0000598862
B                0.3898247677        0.7610838006        0.0000598862
B                0.1101752323        0.2610838006        0.4999401138
B                0.8898247677        0.7389161994        0.4999401138
H                0.4326600952        0.2924580430        0.0002216967
H                0.5673399048        0.7075419570        0.0002216967
H                0.9326600952        0.2075419570        0.4997783033
H                0.0673399048        0.7924580430        0.4997783033
H                0.7229976579        0.3845644849       -0.0000059740
H                0.2770023421        0.6154355151       -0.0000059740
H                0.2229976579        0.1154355151        0.5000059740
H                0.7770023421        0.8845644849        0.5000059740
H                0.6393792820        0.1412690118        0.7787487117
H                0.3606207180        0.8587309882        0.7787487117
H                0.1393792820        0.3587309882        0.7212512883
H                0.8606207180        0.6412690118        0.7212512883
H                0.3604188275        0.8587754063        0.2212704491
H                0.6395811725        0.1412245937        0.2212704491
H                0.8604188275        0.6412245937        0.2787295509
H                0.1395811725        0.3587754063        0.2787295509



     Writing config-only to output data dir ./pwscf.save/ :
     XML data file
     NEW-OLD atomic charge density approx. for the potential

     total cpu time spent up to now is      519.1 secs

     Self-consistent Calculation

     iteration #  1     ecut=   100.00 Ry     beta= 0.70
     Davidson diagonalization with overlap
     ethr =  1.00E-06,  avg # of iterations =  2.0

     Threshold (ethr) on eigenvalues was too large:
     Diagonalizing with lowered threshold

     Davidson diagonalization with overlap
     ethr =  4.64E-08,  avg # of iterations =  2.0

     total cpu time spent up to now is      546.5 secs

     total energy              =    -156.47400464 Ry
     estimated scf accuracy    <       0.00002956 Ry

     iteration #  2     ecut=   100.00 Ry     beta= 0.70
     Davidson diagonalization with overlap
     ethr =  6.16E-08,  avg # of iterations =  2.0

     total cpu time spent up to now is      560.9 secs

     total energy              =    -156.47401301 Ry
     estimated scf accuracy    <       0.00000574 Ry

     iteration #  3     ecut=   100.00 Ry     beta= 0.70
     Davidson diagonalization with overlap
     ethr =  1.20E-08,  avg # of iterations =  2.0

     total cpu time spent up to now is      575.3 secs

     total energy              =    -156.47401377 Ry
     estimated scf accuracy    <       0.00000009 Ry

     iteration #  4     ecut=   100.00 Ry     beta= 0.70
     Davidson diagonalization with overlap
     ethr =  1.84E-10,  avg # of iterations =  3.0

     total cpu time spent up to now is      592.9 secs

     total energy              =    -156.47401381 Ry
     estimated scf accuracy    <       0.00000005 Ry

     iteration #  5     ecut=   100.00 Ry     beta= 0.70
     Davidson diagonalization with overlap
     ethr =  1.02E-10,  avg # of iterations =  2.0

     total cpu time spent up to now is      607.3 secs

     total energy              =    -156.47401382 Ry
     estimated scf accuracy    <          5.9E-10 Ry

     iteration #  6     ecut=   100.00 Ry     beta= 0.70
     Davidson diagonalization with overlap
     ethr =  1.23E-12,  avg # of iterations =  6.1

     total cpu time spent up to now is      630.9 secs

     total energy              =    -156.47401382 Ry
     estimated scf accuracy    <          4.7E-10 Ry

     iteration #  7     ecut=   100.00 Ry     beta= 0.70
     Davidson diagonalization with overlap
     ethr =  9.81E-13,  avg # of iterations =  2.0

     total cpu time spent up to now is      645.2 secs

     End of self-consistent calculation

          k = 0.0000 0.0000 0.0000 ( 23525 PWs)   bands (ev):

   -23.5046 -23.4934  -9.1349  -9.0314  -8.7982  -8.7522  -8.7260  -8.6496
    -5.8761  -4.8622  -4.0757  -3.9361  -1.5920  -0.6371  -0.5280  -0.1870
     0.2042   0.2275   0.2911   0.4003   0.5732   1.0266   1.0368   1.0851

          k = 0.0000 0.0000 0.3606 ( 23508 PWs)   bands (ev):

   -23.4952 -23.4872  -9.0238  -9.0237  -8.9974  -8.9529  -8.7766  -8.7514
    -5.3127  -4.5613  -4.2804  -4.1964  -1.1783  -0.9063  -0.4519  -0.3857
    -0.2270  -0.0946   0.2993   0.6087   0.7989   0.8570   0.9365   1.0934

          k = 0.0000 0.0000-0.7213 ( 23488 PWs)   bands (ev):

   -23.4834 -23.4834  -9.2763  -9.2761  -8.8541  -8.8541  -8.7863  -8.7863
    -4.5375  -4.5371  -4.4747  -4.4741  -0.9419  -0.9413  -0.9299  -0.9284
     0.1904   0.1912   0.3098   0.3116   0.9098   0.9098   0.9211   0.9214

          k = 0.0000 0.2439 0.0000 ( 23457 PWs)   bands (ev):

   -23.5030 -23.4950  -9.1014  -8.9945  -8.8659  -8.7955  -8.7146  -8.6605
    -5.6517  -4.7580  -4.4017  -4.0842  -1.1917  -0.7276  -0.7140   0.1003
     0.1242   0.1541   0.4544   0.5865   0.6749   0.6754   0.9319   1.0069

          k = 0.0000 0.2439 0.3606 ( 23487 PWs)   bands (ev):

   -23.4940 -23.4884  -9.0793  -9.0344  -8.9346  -8.9184  -8.7887  -8.7785
    -5.2003  -4.6461  -4.3233  -4.2373  -0.9779  -0.9326  -0.7445  -0.1296
    -0.0795   0.1262   0.1361   0.6655   0.7333   0.7976   0.8978   0.9595

          k = 0.0000 0.2439-0.7213 ( 23492 PWs)   bands (ev):

   -23.4834 -23.4834  -9.2923  -9.2922  -8.8311  -8.8311  -8.7851  -8.7851
    -4.8748  -4.8747  -4.1228  -4.1227  -1.0787  -1.0780  -0.7311  -0.7302
     0.2795   0.2797   0.3441   0.3457   0.7157   0.7157   0.9173   0.9175

          k = 0.0000-0.4878 0.0000 ( 23460 PWs)   bands (ev):

   -23.4990 -23.4990  -9.0039  -9.0039  -8.8943  -8.8943  -8.6873  -8.6873
    -5.0984  -5.0984  -4.4086  -4.4086  -0.8597  -0.8597  -0.2131  -0.2131
     0.0332   0.0332   0.5887   0.5887   0.7182   0.7182   0.8491   0.8491

          k = 0.0000-0.4878 0.3606 ( 23492 PWs)   bands (ev):

   -23.4912 -23.4912  -9.0796  -9.0796  -8.8637  -8.8637  -8.8278  -8.8278
    -4.9217  -4.9217  -4.3083  -4.3083  -0.9198  -0.9198  -0.4912  -0.4912
     0.1872   0.1872   0.4813   0.4813   0.6478   0.6478   0.8705   0.8705

          k = 0.0000-0.4878-0.7213 ( 23476 PWs)   bands (ev):

   -23.4834 -23.4834  -9.3069  -9.3069  -8.8114  -8.8114  -8.7818  -8.7818
    -5.0243  -5.0243  -3.9587  -3.9587  -1.1774  -1.1774  -0.4562  -0.4562
     0.1930   0.1930   0.4155   0.4155   0.5094   0.5094   0.9560   0.9560

          k = 0.2502 0.0000 0.0000 ( 23514 PWs)   bands (ev):

   -23.5029 -23.4950  -9.0889  -9.0106  -8.8512  -8.8183  -8.7146  -8.6605
    -5.6605  -4.8820  -4.1274  -4.1140  -1.3869  -0.4753  -0.4432  -0.3241
     0.2508   0.2975   0.3563   0.4341   0.5297   0.5677   0.9869   1.0254

          k = 0.2502 0.0000 0.3606 ( 23507 PWs)   bands (ev):

   -23.4940 -23.4884  -9.0692  -9.0487  -8.9689  -8.8895  -8.8083  -8.7640
    -5.1484  -4.5346  -4.3415  -4.3209  -1.1516  -0.8893  -0.7518  -0.1733
    -0.1670   0.1357   0.3729   0.5141   0.6684   0.7987   1.0092   1.0385

          k = 0.2502 0.0000-0.7213 ( 23512 PWs)   bands (ev):

   -23.4834 -23.4834  -9.2983  -9.2981  -8.8368  -8.8368  -8.7824  -8.7823
    -4.6546  -4.6543  -4.3210  -4.3206  -1.4458  -1.4453  -0.4422  -0.4419
     0.1926   0.1930   0.5619   0.5633   0.6922   0.6923   0.9514   0.9518

          k = 0.2502 0.2439 0.0000 ( 23508 PWs)   bands (ev):

   -23.5018 -23.4961  -9.1238  -8.9812  -8.9171  -8.7599  -8.7063  -8.6681
    -5.5073  -4.8350  -4.4089  -4.1394  -1.0707  -0.7069  -0.4915  -0.0052
     0.0586   0.1144   0.4500   0.5963   0.6185   0.6995   0.7757   0.9336

          k = 0.2502 0.2439 0.3606 ( 23497 PWs)   bands (ev):

   -23.4932 -23.4892  -9.0727  -9.0243  -9.0158  -8.8634  -8.8237  -8.7551
    -5.0544  -4.5862  -4.4200  -4.3189  -1.1137  -0.8666  -0.7479  -0.1576
     0.0011   0.1925   0.3009   0.5365   0.6434   0.7614   0.9238   1.0150

          k = 0.2502 0.2439-0.7213 ( 23488 PWs)   bands (ev):

   -23.4833 -23.4833  -9.3062  -9.2781  -8.8644  -8.8137  -8.7920  -8.7826
    -4.8904  -4.6755  -4.2898  -4.0682  -1.4211  -1.3286  -0.5216  -0.3905
     0.1358   0.1425   0.5257   0.6067   0.6974   0.7533   0.8943   0.9278

          k = 0.2502-0.4878 0.0000 ( 23472 PWs)   bands (ev):

   -23.4989 -23.4989  -9.0950  -9.0950  -8.8025  -8.8025  -8.6868  -8.6868
    -5.1141  -5.1141  -4.3787  -4.3787  -0.7626  -0.7626  -0.2225  -0.2225
    -0.0116  -0.0116   0.5066   0.5066   0.7633   0.7633   0.7858   0.7858

          k = 0.2502-0.4878 0.3606 ( 23502 PWs)   bands (ev):

   -23.4911 -23.4911  -9.0659  -9.0659  -8.9425  -8.9425  -8.7724  -8.7724
    -4.8219  -4.8219  -4.3842  -4.3842  -1.0201  -1.0201  -0.3942  -0.3942
     0.1488   0.1488   0.4988   0.4988   0.6594   0.6594   0.8930   0.8930

          k = 0.2502-0.4878-0.7213 ( 23504 PWs)   bands (ev):

   -23.4833 -23.4833  -9.2873  -9.2873  -8.8422  -8.8422  -8.7902  -8.7902
    -4.8968  -4.8968  -4.0515  -4.0515  -1.2980  -1.2980  -0.5174  -0.5174
     0.2633   0.2633   0.3943   0.3943   0.7549   0.7549   0.9115   0.9115

          k =-0.5003 0.0000 0.0000 ( 23496 PWs)   bands (ev):

   -23.4989 -23.4989  -8.9742  -8.9742  -8.9355  -8.9355  -8.6873  -8.6873
    -5.1855  -5.1855  -4.2184  -4.2184  -0.9348  -0.9348  -0.0875  -0.0875
     0.2938   0.2938   0.3227   0.3227   0.4061   0.4061   0.8650   0.8650

          k =-0.5003 0.0000 0.3606 ( 23476 PWs)   bands (ev):

   -23.4911 -23.4911  -9.0852  -9.0852  -8.8913  -8.8913  -8.8091  -8.8091
    -4.7644  -4.7644  -4.4060  -4.4060  -1.0776  -1.0776  -0.4643  -0.4643
     0.1580   0.1580   0.3612   0.3612   0.7594   0.7594   0.9959   0.9959

          k =-0.5003 0.0000-0.7213 ( 23532 PWs)   bands (ev):

   -23.4833 -23.4833  -9.3185  -9.3185  -8.8224  -8.8224  -8.7771  -8.7771
    -4.7103  -4.7103  -4.2249  -4.2249  -1.6730  -1.6730  -0.1093  -0.1093
     0.1936   0.1936   0.3627   0.3627   0.8935   0.8935   0.9018   0.9018

          k =-0.5003 0.2439 0.0000 ( 23526 PWs)   bands (ev):

   -23.4989 -23.4989  -9.0932  -9.0932  -8.8100  -8.8100  -8.6868  -8.6868
    -5.1599  -5.1599  -4.2814  -4.2814  -0.8160  -0.8160  -0.0931  -0.0931
     0.0590   0.0590   0.2749   0.2749   0.6668   0.6668   0.8441   0.8441

          k =-0.5003 0.2439 0.3606 ( 23496 PWs)   bands (ev):

   -23.4911 -23.4911  -9.0696  -9.0696  -8.9472  -8.9472  -8.7711  -8.7711
    -4.7205  -4.7205  -4.4553  -4.4553  -1.0832  -1.0832  -0.4286  -0.4286
     0.1921   0.1921   0.4074   0.4074   0.7535   0.7535   0.9204   0.9204

          k =-0.5003 0.2439-0.7213 ( 23492 PWs)   bands (ev):

   -23.4833 -23.4833  -9.2937  -9.2937  -8.8453  -8.8453  -8.7894  -8.7894
    -4.7197  -4.7197  -4.2046  -4.2046  -1.5590  -1.5590  -0.3365  -0.3365
     0.2365   0.2365   0.4461   0.4461   0.8193   0.8193   0.9698   0.9698

          k =-0.5003-0.4878 0.0000 ( 23500 PWs)   bands (ev):

   -23.4989 -23.4989  -9.1480  -9.1480  -8.7489  -8.7489  -8.6863  -8.6863
    -5.1312  -5.1312  -4.3461  -4.3461  -0.6471  -0.6471  -0.2540  -0.2540
    -0.0517  -0.0517   0.4684   0.4684   0.6800   0.6800   0.8037   0.8037

          k =-0.5003-0.4878 0.3606 ( 23476 PWs)   bands (ev):

   -23.4911 -23.4911  -9.0390  -9.0390  -9.0020  -9.0020  -8.7493  -8.7493
    -4.6508  -4.6508  -4.5301  -4.5301  -1.0721  -1.0721  -0.4637  -0.4637
     0.3503   0.3503   0.5000   0.5000   0.6498   0.6498   0.8247   0.8247

          k =-0.5003-0.4878-0.7213 ( 23528 PWs)   bands (ev):

   -23.4833 -23.4833  -9.2651  -9.2651  -8.8755  -8.8755  -8.7980  -8.7980
    -4.7294  -4.7294  -4.1835  -4.1835  -1.3865  -1.3865  -0.6532  -0.6532
     0.4787   0.4787   0.5307   0.5307   0.6766   0.6766   0.9297   0.9297

     highest occupied level (ev):     1.0934

!    total energy              =    -156.47401382 Ry
     estimated scf accuracy    <          1.0E-11 Ry

     The total energy is the sum of the following terms:
     one-electron contribution =     -19.50577935 Ry
     hartree contribution      =      24.67241579 Ry
     xc contribution           =     -49.20726908 Ry
     ewald contribution        =    -112.43338119 Ry

     convergence has been achieved in   7 iterations

     Forces acting on atoms (cartesian axes, Ry/au):

     atom    1 type  2   force =     0.00000000    0.00000000    0.00000442
     atom    2 type  2   force =     0.00000000    0.00000000   -0.00000442
     atom    3 type  1   force =    -0.00025795   -0.00042877   -0.00000793
     atom    4 type  1   force =     0.00025795    0.00042877   -0.00000793
     atom    5 type  1   force =    -0.00025795    0.00042877    0.00000793
     atom    6 type  1   force =     0.00025795   -0.00042877    0.00000793
     atom    7 type  3   force =    -0.00026740   -0.00024233   -0.00002201
     atom    8 type  3   force =     0.00026740    0.00024233   -0.00002201
     atom    9 type  3   force =    -0.00026740    0.00024233    0.00002201
     atom   10 type  3   force =     0.00026740   -0.00024233    0.00002201
     atom   11 type  3   force =     0.00002081   -0.00054941    0.00000404
     atom   12 type  3   force =    -0.00002081    0.00054941    0.00000404
     atom   13 type  3   force =     0.00002081    0.00054941   -0.00000404
     atom   14 type  3   force =    -0.00002081   -0.00054941   -0.00000404
     atom   15 type  3   force =    -0.00026901   -0.00026835    0.00017490
     atom   16 type  3   force =     0.00026901    0.00026835    0.00017490
     atom   17 type  3   force =    -0.00026901    0.00026835   -0.00017490
     atom   18 type  3   force =     0.00026901   -0.00026835   -0.00017490
     atom   19 type  3   force =     0.00031033    0.00025664   -0.00017787
     atom   20 type  3   force =    -0.00031033   -0.00025664   -0.00017787
     atom   21 type  3   force =     0.00031033   -0.00025664    0.00017787
     atom   22 type  3   force =    -0.00031033    0.00025664    0.00017787

     Total force =     0.002052     Total SCF correction =     0.000002


     Computing stress (Cartesian axis) and pressure

          total   stress  (Ry/bohr**3)                   (kbar)     P=        7.06
   0.00004533   0.00000000   0.00000000            6.67        0.00        0.00
   0.00000000   0.00004513   0.00000000            0.00        6.64        0.00
   0.00000000   0.00000000   0.00005347            0.00        0.00        7.87

     Volume is kept fixed: isostatic pressure set to zero
     Energy error            =      3.1E-05 Ry
     Gradient error          =      5.5E-04 Ry/Bohr
     Cell gradient error     =      8.1E-01 kbar

     number of scf cycles    =   4
     number of bfgs steps    =   3

     enthalpy           old  =    -156.4739831631 Ry
     enthalpy           new  =    -156.4740138209 Ry

     CASE: enthalpy          _new < enthalpy          _old

     new trust radius        =       0.0015073556 bohr
ibrav =      8
 celldm(1) =     12.50403053
 celldm(2) =      1.02566732
 celldm(3) =      0.69384578
Input lattice vectors:
     0.99927083     0.00000000     0.00000000
     0.00000000     1.02491943     0.00000000
     0.00000000     0.00000000     0.69333985
New lattice vectors in INITIAL alat:
     0.99927083     0.00000000     0.00000000
     0.00000000     1.02491943     0.00000000
     0.00000000     0.00000000     0.69333985
New lattice vectors in NEW alat (for information only):
     1.00000000     0.00000000     0.00000000
     0.00000000     1.02566732     0.00000000
     0.00000000     0.00000000     0.69384578
Discrepancy in bohr =     0.000000    0.000000    0.000000
     new conv_thr            =            3.1E-12 Ry

     new unit-cell volume =   1391.29603 a.u.^3 (   206.16880 Ang^3 )
     density =      2.69033 g/cm^3

CELL_PARAMETERS (alat= 12.51315479)
   0.999270826   0.000000000   0.000000000
   0.000000000   1.024919430   0.000000000
   0.000000000   0.000000000   0.693339847

ATOMIC_POSITIONS (crystal)
Ba               0.5000000000        0.5000000000        0.5001060155
Ba               0.0000000000        0.0000000000        0.9998939845
B                0.6101472262        0.2388664891        0.0000585873
B                0.3898527738        0.7611335109        0.0000585873
B                0.1101472262        0.2611335109        0.4999414127
B                0.8898527738        0.7388664891        0.4999414127
H                0.4325980860        0.2924418028        0.0002182958
H                0.5674019140        0.7075581972        0.0002182958
H                0.9325980860        0.2075581972        0.4997817042
H                0.0674019140        0.7924418028        0.4997817042
H                0.7230231312        0.3845360574       -0.0000053266
H                0.2769768688        0.6154639426       -0.0000053266
H                0.2230231312        0.1154639426        0.5000053266
H                0.7769768688        0.8845360574        0.5000053266
H                0.6393556224        0.1412228604        0.7787304036
H                0.3606443776        0.8587771396        0.7787304036
H                0.1393556224        0.3587771396        0.7212695964
H                0.8606443776        0.6412228604        0.7212695964
H                0.3604470032        0.8588202602        0.2212882180
H                0.6395529968        0.1411797398        0.2212882180
H                0.8604470032        0.6411797398        0.2787117820
H                0.1395529968        0.3588202602        0.2787117820



     Writing config-only to output data dir ./pwscf.save/ :
     XML data file
     NEW-OLD atomic charge density approx. for the potential

     total cpu time spent up to now is      674.6 secs

     Self-consistent Calculation

     iteration #  1     ecut=   100.00 Ry     beta= 0.70
     Davidson diagonalization with overlap
     ethr =  1.00E-06,  avg # of iterations =  1.1

     Threshold (ethr) on eigenvalues was too large:
     Diagonalizing with lowered threshold

     Davidson diagonalization with overlap
     ethr =  7.69E-10,  avg # of iterations =  4.2

     total cpu time spent up to now is      706.6 secs

     total energy              =    -156.47402034 Ry
     estimated scf accuracy    <       0.00000106 Ry

     iteration #  2     ecut=   100.00 Ry     beta= 0.70
     Davidson diagonalization with overlap
     ethr =  2.21E-09,  avg # of iterations =  2.0

     total cpu time spent up to now is      721.0 secs

     total energy              =    -156.47402058 Ry
     estimated scf accuracy    <       0.00000012 Ry

     iteration #  3     ecut=   100.00 Ry     beta= 0.70
     Davidson diagonalization with overlap
     ethr =  2.43E-10,  avg # of iterations =  2.0

     total cpu time spent up to now is      735.4 secs

     total energy              =    -156.47402059 Ry
     estimated scf accuracy    <          2.9E-09 Ry

     iteration #  4     ecut=   100.00 Ry     beta= 0.70
     Davidson diagonalization with overlap
     ethr =  6.11E-12,  avg # of iterations =  4.1

     total cpu time spent up to now is      752.3 secs

     total energy              =    -156.47402060 Ry
     estimated scf accuracy    <          5.1E-10 Ry

     iteration #  5     ecut=   100.00 Ry     beta= 0.70
     Davidson diagonalization with overlap
     ethr =  1.07E-12,  avg # of iterations =  3.9

     total cpu time spent up to now is      768.4 secs

     total energy              =    -156.47402060 Ry
     estimated scf accuracy    <          8.8E-12 Ry

     iteration #  6     ecut=   100.00 Ry     beta= 0.70
     Davidson diagonalization with overlap
     ethr =  1.00E-13,  avg # of iterations =  4.4

     total cpu time spent up to now is      785.9 secs

     End of self-consistent calculation

          k = 0.0000 0.0000 0.0000 ( 23525 PWs)   bands (ev):

   -23.5047 -23.4934  -9.1346  -9.0312  -8.7980  -8.7521  -8.7261  -8.6496
    -5.8753  -4.8610  -4.0745  -3.9347  -1.5911  -0.6364  -0.5275  -0.1852
     0.2042   0.2290   0.2901   0.4003   0.5724   1.0280   1.0379   1.0875

          k = 0.0000 0.0000 0.3606 ( 23508 PWs)   bands (ev):

   -23.4953 -23.4873  -9.0235  -9.0234  -8.9968  -8.9529  -8.7765  -8.7514
    -5.3124  -4.5607  -4.2790  -4.1948  -1.1780  -0.9057  -0.4511  -0.3850
    -0.2270  -0.0947   0.3001   0.6095   0.7998   0.8587   0.9374   1.0954

          k = 0.0000 0.0000-0.7211 ( 23488 PWs)   bands (ev):

   -23.4835 -23.4835  -9.2754  -9.2751  -8.8542  -8.8542  -8.7863  -8.7862
    -4.5374  -4.5370  -4.4728  -4.4723  -0.9422  -0.9416  -0.9293  -0.9278
     0.1910   0.1918   0.3104   0.3122   0.9118   0.9119   0.9222   0.9225

          k = 0.0000 0.2439 0.0000 ( 23457 PWs)   bands (ev):

   -23.5030 -23.4951  -9.1011  -8.9943  -8.8658  -8.7954  -8.7147  -8.6605
    -5.6509  -4.7566  -4.4009  -4.0829  -1.1904  -0.7270  -0.7134   0.0999
     0.1235   0.1558   0.4561   0.5863   0.6745   0.6776   0.9332   1.0080

          k = 0.0000 0.2439 0.3606 ( 23487 PWs)   bands (ev):

   -23.4941 -23.4884  -9.0789  -9.0340  -8.9343  -8.9183  -8.7886  -8.7785
    -5.1999  -4.6453  -4.3220  -4.2358  -0.9774  -0.9321  -0.7440  -0.1297
    -0.0790   0.1273   0.1364   0.6665   0.7343   0.7995   0.8986   0.9609

          k = 0.0000 0.2439-0.7211 ( 23492 PWs)   bands (ev):

   -23.4835 -23.4835  -9.2914  -9.2913  -8.8312  -8.8312  -8.7851  -8.7851
    -4.8738  -4.8738  -4.1219  -4.1218  -1.0781  -1.0775  -0.7312  -0.7304
     0.2803   0.2805   0.3450   0.3466   0.7167   0.7167   0.9191   0.9193

          k = 0.0000-0.4878 0.0000 ( 23460 PWs)   bands (ev):

   -23.4990 -23.4990  -9.0036  -9.0036  -8.8943  -8.8943  -8.6873  -8.6873
    -5.0973  -5.0973  -4.4075  -4.4075  -0.8590  -0.8590  -0.2115  -0.2115
     0.0325   0.0325   0.5906   0.5906   0.7180   0.7180   0.8503   0.8503

          k = 0.0000-0.4878 0.3606 ( 23492 PWs)   bands (ev):

   -23.4912 -23.4912  -9.0792  -9.0792  -8.8635  -8.8635  -8.8278  -8.8278
    -4.9210  -4.9210  -4.3071  -4.3071  -0.9194  -0.9194  -0.4906  -0.4906
     0.1878   0.1878   0.4817   0.4817   0.6499   0.6499   0.8714   0.8714

          k = 0.0000-0.4878-0.7211 ( 23476 PWs)   bands (ev):

   -23.4834 -23.4834  -9.3061  -9.3061  -8.8115  -8.8115  -8.7818  -8.7818
    -5.0233  -5.0233  -3.9579  -3.9579  -1.1768  -1.1768  -0.4564  -0.4564
     0.1943   0.1943   0.4161   0.4161   0.5107   0.5107   0.9576   0.9576

          k = 0.2502 0.0000 0.0000 ( 23514 PWs)   bands (ev):

   -23.5030 -23.4950  -9.0886  -9.0104  -8.8510  -8.8182  -8.7147  -8.6606
    -5.6596  -4.8808  -4.1262  -4.1128  -1.3859  -0.4740  -0.4429  -0.3231
     0.2502   0.2970   0.3560   0.4361   0.5293   0.5684   0.9883   1.0278

          k = 0.2502 0.0000 0.3606 ( 23507 PWs)   bands (ev):

   -23.4941 -23.4884  -9.0689  -9.0484  -8.9687  -8.8893  -8.8081  -8.7640
    -5.1480  -4.5339  -4.3400  -4.3195  -1.1516  -0.8887  -0.7517  -0.1728
    -0.1663   0.1361   0.3740   0.5152   0.6689   0.7996   1.0113   1.0397

          k = 0.2502 0.0000-0.7211 ( 23512 PWs)   bands (ev):

   -23.4835 -23.4834  -9.2974  -9.2973  -8.8369  -8.8368  -8.7823  -8.7823
    -4.6533  -4.6529  -4.3204  -4.3200  -1.4458  -1.4453  -0.4420  -0.4417
     0.1933   0.1937   0.5629   0.5643   0.6937   0.6938   0.9528   0.9533

          k = 0.2502 0.2439 0.0000 ( 23508 PWs)   bands (ev):

[...]
        18        H      tau(  18) = (   0.8597626   0.6555560   0.5013208  )
        19        H      tau(  19) = (   0.3629876   0.8841643   0.1532015  )
        20        H      tau(  20) = (   0.6306011   0.1423199   0.1532015  )
        21        H      tau(  21) = (   0.8597819   0.6555619   0.1949195  )
        22        H      tau(  22) = (   0.1338068   0.3709222   0.1949195  )

     number of k points=    27
                       cart. coord. in units 2pi/alat
        k(    1) = (   0.0000000   0.0000000   0.0000000), wk =   0.0312500
        k(    2) = (   0.0000000   0.0000000   0.3590705), wk =   0.0625000
        k(    3) = (   0.0000000   0.0000000  -0.7181411), wk =   0.0312500
        k(    4) = (   0.0000000   0.2435498   0.0000000), wk =   0.0625000
        k(    5) = (   0.0000000   0.2435498   0.3590705), wk =   0.1250000
        k(    6) = (   0.0000000   0.2435498  -0.7181411), wk =   0.0625000
        k(    7) = (   0.0000000  -0.4870996   0.0000000), wk =   0.0312500
        k(    8) = (   0.0000000  -0.4870996   0.3590705), wk =   0.0625000
        k(    9) = (   0.0000000  -0.4870996  -0.7181411), wk =   0.0312500
        k(   10) = (   0.2516132   0.0000000   0.0000000), wk =   0.0625000
        k(   11) = (   0.2516132   0.0000000   0.3590705), wk =   0.1250000
        k(   12) = (   0.2516132   0.0000000  -0.7181411), wk =   0.0625000
        k(   13) = (   0.2516132   0.2435498   0.0000000), wk =   0.1250000
        k(   14) = (   0.2516132   0.2435498   0.3590705), wk =   0.2500000
        k(   15) = (   0.2516132   0.2435498  -0.7181411), wk =   0.1250000
        k(   16) = (   0.2516132  -0.4870996   0.0000000), wk =   0.0625000
        k(   17) = (   0.2516132  -0.4870996   0.3590705), wk =   0.1250000
        k(   18) = (   0.2516132  -0.4870996  -0.7181411), wk =   0.0625000
        k(   19) = (  -0.5032264   0.0000000   0.0000000), wk =   0.0312500
        k(   20) = (  -0.5032264   0.0000000   0.3590705), wk =   0.0625000
        k(   21) = (  -0.5032264   0.0000000  -0.7181411), wk =   0.0312500
        k(   22) = (  -0.5032264   0.2435498   0.0000000), wk =   0.0625000
        k(   23) = (  -0.5032264   0.2435498   0.3590705), wk =   0.1250000
        k(   24) = (  -0.5032264   0.2435498  -0.7181411), wk =   0.0625000
        k(   25) = (  -0.5032264  -0.4870996   0.0000000), wk =   0.0312500
        k(   26) = (  -0.5032264  -0.4870996   0.3590705), wk =   0.0625000
        k(   27) = (  -0.5032264  -0.4870996  -0.7181411), wk =   0.0312500

     Dense  grid:   531671 G-vectors     FFT dimensions: ( 120, 120,  80)

     Smooth grid:   187989 G-vectors     FFT dimensions: (  80,  90,  60)

     Estimated max dynamical RAM per process >      89.95 MB

     Estimated total dynamical RAM >       2.11 GB

     Initial potential from superposition of free atoms

     starting charge      47.9682, renormalised to      48.0000
     Starting wfcs are   42 randomized atomic wfcs

     total cpu time spent up to now is     7852.0 secs

     Self-consistent Calculation

     iteration #  1     ecut=   100.00 Ry     beta= 0.70
     Davidson diagonalization with overlap
     ethr =  1.00E-06,  avg # of iterations = 11.1

     total cpu time spent up to now is     7895.2 secs

     total energy              =    -155.85855953 Ry
     estimated scf accuracy    <       2.19468838 Ry

     iteration #  2     ecut=   100.00 Ry     beta= 0.70
     Davidson diagonalization with overlap
     ethr =  4.57E-03,  avg # of iterations =  2.0

     total cpu time spent up to now is     7909.1 secs

     total energy              =    -156.40172757 Ry
     estimated scf accuracy    <       0.44735329 Ry

     iteration #  3     ecut=   100.00 Ry     beta= 0.70
     Davidson diagonalization with overlap
     ethr =  9.32E-04,  avg # of iterations =  2.0

     total cpu time spent up to now is     7923.1 secs

     total energy              =    -156.47159223 Ry
     estimated scf accuracy    <       0.00552977 Ry

     iteration #  4     ecut=   100.00 Ry     beta= 0.70
     Davidson diagonalization with overlap
     ethr =  1.15E-05,  avg # of iterations =  3.3

     total cpu time spent up to now is     7940.5 secs

     total energy              =    -156.47356636 Ry
     estimated scf accuracy    <       0.00211329 Ry

     iteration #  5     ecut=   100.00 Ry     beta= 0.70
     Davidson diagonalization with overlap
     ethr =  4.40E-06,  avg # of iterations =  3.6

     total cpu time spent up to now is     7955.5 secs

     total energy              =    -156.47419128 Ry
     estimated scf accuracy    <       0.00005049 Ry

     iteration #  6     ecut=   100.00 Ry     beta= 0.70
     Davidson diagonalization with overlap
     ethr =  1.05E-07,  avg # of iterations =  5.9

     total cpu time spent up to now is     7977.8 secs

     total energy              =    -156.47427661 Ry
     estimated scf accuracy    <       0.00001182 Ry

     iteration #  7     ecut=   100.00 Ry     beta= 0.70
     Davidson diagonalization with overlap
     ethr =  2.46E-08,  avg # of iterations =  3.5

     total cpu time spent up to now is     7992.9 secs

     total energy              =    -156.47428023 Ry
     estimated scf accuracy    <       0.00000010 Ry

     iteration #  8     ecut=   100.00 Ry     beta= 0.70
     Davidson diagonalization with overlap
     ethr =  2.15E-10,  avg # of iterations =  7.1

     total cpu time spent up to now is     8019.6 secs

     total energy              =    -156.47428048 Ry
     estimated scf accuracy    <       0.00000006 Ry

     iteration #  9     ecut=   100.00 Ry     beta= 0.70
     Davidson diagonalization with overlap
     ethr =  1.29E-10,  avg # of iterations =  2.0

     total cpu time spent up to now is     8033.6 secs

     total energy              =    -156.47428049 Ry
     estimated scf accuracy    <          2.4E-09 Ry

     iteration # 10     ecut=   100.00 Ry     beta= 0.70
     Davidson diagonalization with overlap
     ethr =  5.00E-12,  avg # of iterations =  5.2

     total cpu time spent up to now is     8053.1 secs

     total energy              =    -156.47428049 Ry
     estimated scf accuracy    <          2.6E-10 Ry

     iteration # 11     ecut=   100.00 Ry     beta= 0.70
     Davidson diagonalization with overlap
     ethr =  5.37E-13,  avg # of iterations =  4.6

     total cpu time spent up to now is     8070.4 secs

     total energy              =    -156.47428049 Ry
     estimated scf accuracy    <          1.2E-11 Ry

     iteration # 12     ecut=   100.00 Ry     beta= 0.70
     Davidson diagonalization with overlap
     ethr =  1.00E-13,  avg # of iterations =  4.1

     total cpu time spent up to now is     8086.7 secs

     total energy              =    -156.47428049 Ry
     estimated scf accuracy    <          1.6E-12 Ry

     iteration # 13     ecut=   100.00 Ry     beta= 0.70
     Davidson diagonalization with overlap
     ethr =  1.00E-13,  avg # of iterations =  1.0

     total cpu time spent up to now is     8097.7 secs

     End of self-consistent calculation

          k = 0.0000 0.0000 0.0000 ( 23517 PWs)   bands (ev):

   -23.5256 -23.5144  -9.1397  -9.0315  -8.8076  -8.7645  -8.7418  -8.6663
    -5.8667  -4.8535  -4.0748  -3.9116  -1.5737  -0.6349  -0.5259  -0.1889
     0.2347   0.2736   0.2957   0.4592   0.5634   1.0451   1.0555   1.0999

          k = 0.0000 0.0000 0.3591 ( 23520 PWs)   bands (ev):

   -23.5167 -23.5088  -9.0318  -9.0250  -8.9979  -8.9580  -8.7878  -8.7647
    -5.3212  -4.5712  -4.2682  -4.1689  -1.1744  -0.8724  -0.3827  -0.3797
    -0.2376  -0.0958   0.2996   0.6170   0.8091   0.8870   0.9720   1.1249

          k = 0.0000 0.0000-0.7181 ( 23532 PWs)   bands (ev):

   -23.5054 -23.5054  -9.2663  -9.2663  -8.8672  -8.8672  -8.7983  -8.7983
    -4.5619  -4.5618  -4.4463  -4.4463  -0.9371  -0.9370  -0.8728  -0.8728
     0.1869   0.1871   0.3090   0.3091   0.9345   0.9347   0.9546   0.9547

          k = 0.0000 0.2435 0.0000 ( 23451 PWs)   bands (ev):

   -23.5240 -23.5161  -9.1065  -8.9957  -8.8749  -8.8060  -8.7305  -8.6771
    -5.6423  -4.7410  -4.4075  -4.0660  -1.1661  -0.7171  -0.7110   0.1083
     0.1205   0.1579   0.5062   0.6317   0.6876   0.6940   0.9498   1.0254

          k = 0.0000 0.2435 0.3591 ( 23506 PWs)   bands (ev):

   -23.5155 -23.5099  -9.0827  -9.0360  -8.9406  -8.9242  -8.7991  -8.7909
    -5.2086  -4.6544  -4.3114  -4.2134  -0.9700  -0.8996  -0.7077  -0.1218
    -0.0556   0.1191   0.1431   0.6813   0.7389   0.8313   0.9214   0.9869

          k = 0.0000 0.2435-0.7181 ( 23528 PWs)   bands (ev):

   -23.5054 -23.5054  -9.2829  -9.2829  -8.8440  -8.8440  -8.7969  -8.7969
    -4.8752  -4.8752  -4.1195  -4.1195  -1.0178  -1.0177  -0.7273  -0.7272
     0.2709   0.2710   0.3470   0.3470   0.7318   0.7319   0.9539   0.9540

          k = 0.0000-0.4871 0.0000 ( 23428 PWs)   bands (ev):

   -23.5200 -23.5200  -9.0094  -9.0094  -8.9013  -8.9013  -8.7035  -8.7035
    -5.0862  -5.0862  -4.4035  -4.4035  -0.8345  -0.8345  -0.2079  -0.2079
     0.0294   0.0294   0.6072   0.6072   0.7596   0.7596   0.8733   0.8733

          k = 0.0000-0.4871 0.3591 ( 23478 PWs)   bands (ev):

   -23.5127 -23.5127  -9.0820  -9.0820  -8.8701  -8.8701  -8.8387  -8.8387
    -4.9294  -4.9294  -4.2919  -4.2919  -0.8844  -0.8844  -0.4838  -0.4838
     0.2147   0.2147   0.4678   0.4678   0.6783   0.6783   0.8901   0.8901

          k = 0.0000-0.4871-0.7181 ( 23480 PWs)   bands (ev):

   -23.5054 -23.5054  -9.2981  -9.2981  -8.8244  -8.8244  -8.7933  -8.7933
    -5.0235  -5.0235  -3.9575  -3.9575  -1.1129  -1.1129  -0.4468  -0.4468
     0.1688   0.1688   0.4169   0.4169   0.5408   0.5408   0.9799   0.9799

          k = 0.2516 0.0000 0.0000 ( 23466 PWs)   bands (ev):

   -23.5239 -23.5160  -9.0941  -9.0133  -8.8598  -8.8297  -8.7305  -8.6771
    -5.6491  -4.8721  -4.1234  -4.0915  -1.3729  -0.4625  -0.4431  -0.3122
     0.2484   0.3176   0.3830   0.4946   0.5465   0.5667   1.0064   1.0442

          k = 0.2516 0.0000 0.3591 ( 23493 PWs)   bands (ev):

   -23.5155 -23.5099  -9.0716  -9.0523  -8.9753  -8.8955  -8.8191  -8.7765
    -5.1525  -4.5432  -4.3147  -4.3087  -1.1428  -0.8728  -0.7195  -0.1766
    -0.1661   0.1512   0.4025   0.5426   0.6808   0.8093   1.0428   1.0710

          k = 0.2516 0.0000-0.7181 ( 23526 PWs)   bands (ev):

   -23.5054 -23.5054  -9.2893  -9.2893  -8.8499  -8.8499  -8.7945  -8.7945
    -4.6350  -4.6350  -4.3347  -4.3347  -1.4227  -1.4227  -0.4193  -0.4191
     0.1822   0.1824   0.5806   0.5807   0.7302   0.7303   0.9782   0.9783

          k = 0.2516 0.2435 0.0000 ( 23510 PWs)   bands (ev):

   -23.5228 -23.5172  -9.1279  -8.9870  -8.9241  -8.7711  -8.7223  -8.6845
    -5.4923  -4.8122  -4.4122  -4.1327  -1.0456  -0.6909  -0.4761   0.0013
     0.0626   0.1134   0.4759   0.6331   0.6599   0.7264   0.7674   0.9508

          k = 0.2516 0.2435 0.3591 ( 23502 PWs)   bands (ev):

   -23.5147 -23.5107  -9.0756  -9.0258  -9.0232  -8.8700  -8.8342  -8.7678
    -5.0578  -4.5898  -4.4060  -4.3023  -1.1009  -0.8358  -0.7266  -0.1442
     0.0143   0.2082   0.3063   0.5407   0.6727   0.7802   0.9476   1.0406

          k = 0.2516 0.2435-0.7181 ( 23490 PWs)   bands (ev):

   -23.5053 -23.5053  -9.2974  -9.2684  -8.8782  -8.8267  -8.8045  -8.7945
    -4.8799  -4.6765  -4.2825  -4.0735  -1.3846  -1.3105  -0.4726  -0.3703
     0.1192   0.1345   0.5355   0.6018   0.7395   0.7794   0.9100   0.9619

          k = 0.2516-0.4871 0.0000 ( 23464 PWs)   bands (ev):

   -23.5199 -23.5199  -9.0998  -9.0998  -8.8119  -8.8119  -8.7030  -8.7030
    -5.0889  -5.0889  -4.3861  -4.3861  -0.7277  -0.7277  -0.2102  -0.2102
    -0.0137  -0.0137   0.5211   0.5211   0.7945   0.7945   0.8017   0.8017

          k = 0.2516-0.4871 0.3591 ( 23472 PWs)   bands (ev):

   -23.5126 -23.5126  -9.0695  -9.0695  -8.9482  -8.9482  -8.7839  -8.7839
    -4.8231  -4.8231  -4.3724  -4.3724  -0.9974  -0.9974  -0.3646  -0.3646
     0.1657   0.1657   0.5046   0.5046   0.6629   0.6629   0.9196   0.9196

          k = 0.2516-0.4871-0.7181 ( 23496 PWs)   bands (ev):

   -23.5053 -23.5053  -9.2779  -9.2779  -8.8559  -8.8559  -8.8021  -8.8021
    -4.8944  -4.8944  -4.0479  -4.0479  -1.2620  -1.2620  -0.4811  -0.4811
     0.2552   0.2552   0.3909   0.3909   0.7742   0.7742   0.9359   0.9359

          k =-0.5032 0.0000 0.0000 ( 23544 PWs)   bands (ev):

   -23.5199 -23.5199  -8.9802  -8.9802  -8.9440  -8.9440  -8.7035  -8.7035
    -5.1721  -5.1721  -4.2059  -4.2059  -0.9211  -0.9211  -0.0840  -0.0840
     0.2876   0.2876   0.3478   0.3478   0.4424   0.4424   0.8896   0.8896

          k =-0.5032 0.0000 0.3591 ( 23506 PWs)   bands (ev):

   -23.5126 -23.5126  -9.0884  -9.0884  -8.8995  -8.8995  -8.8194  -8.8194
    -4.7619  -4.7619  -4.3929  -4.3929  -1.0653  -1.0653  -0.4539  -0.4539
     0.1642   0.1642   0.3811   0.3811   0.7872   0.7872   1.0290   1.0290

          k =-0.5032 0.0000-0.7181 ( 23516 PWs)   bands (ev):

   -23.5053 -23.5053  -9.3104  -9.3104  -8.8356  -8.8356  -8.7897  -8.7897
    -4.6784  -4.6784  -4.2489  -4.2489  -1.6556  -1.6556  -0.0887  -0.0887
     0.1778   0.1778   0.3896   0.3896   0.9280   0.9280   0.9405   0.9405

          k =-0.5032 0.2435 0.0000 ( 23482 PWs)   bands (ev):

   -23.5199 -23.5199  -9.0984  -9.0984  -8.8199  -8.8199  -8.7030  -8.7030
    -5.1363  -5.1363  -4.2830  -4.2830  -0.7895  -0.7895  -0.0707  -0.0707
     0.0602   0.0602   0.2800   0.2800   0.6980   0.6980   0.8574   0.8574

          k =-0.5032 0.2435 0.3591 ( 23502 PWs)   bands (ev):

   -23.5126 -23.5126  -9.0738  -9.0738  -8.9529  -8.9529  -8.7830  -8.7830
    -4.7141  -4.7141  -4.4477  -4.4477  -1.0686  -1.0686  -0.4009  -0.4009
     0.1823   0.1823   0.4420   0.4420   0.7648   0.7648   0.9483   0.9483

          k =-0.5032 0.2435-0.7181 ( 23524 PWs)   bands (ev):

   -23.5053 -23.5053  -9.2847  -9.2847  -8.8590  -8.8590  -8.8019  -8.8019
    -4.7035  -4.7035  -4.2119  -4.2119  -1.5396  -1.5396  -0.3038  -0.3038
     0.2187   0.2187   0.4739   0.4739   0.8520   0.8520   0.9873   0.9873

          k =-0.5032-0.4871 0.0000 ( 23492 PWs)   bands (ev):

   -23.5199 -23.5199  -9.1526  -9.1526  -8.7600  -8.7600  -8.7025  -8.7025
    -5.0946  -5.0946  -4.3644  -4.3644  -0.5962  -0.5962  -0.2398  -0.2398
    -0.0527  -0.0527   0.4882   0.4882   0.6626   0.6626   0.8396   0.8396

          k =-0.5032-0.4871 0.3591 ( 23500 PWs)   bands (ev):

   -23.5126 -23.5126  -9.0474  -9.0474  -9.0027  -9.0027  -8.7621  -8.7621
    -4.6303  -4.6303  -4.5380  -4.5380  -1.0531  -1.0531  -0.4334  -0.4334
     0.3884   0.3884   0.4792   0.4792   0.6878   0.6878   0.8229   0.8229

          k =-0.5032-0.4871-0.7181 ( 23480 PWs)   bands (ev):

   -23.5053 -23.5053  -9.2548  -9.2548  -8.8902  -8.8902  -8.8105  -8.8105
    -4.7261  -4.7261  -4.1768  -4.1768  -1.3652  -1.3652  -0.6201  -0.6201
     0.5014   0.5014   0.5167   0.5167   0.7093   0.7093   0.9361   0.9361

     highest occupied level (ev):     1.1249

!    total energy              =    -156.47428049 Ry
     estimated scf accuracy    <          9.0E-14 Ry

     The total energy is the sum of the following terms:
     one-electron contribution =     -18.96606649 Ry
     hartree contribution      =      24.40320478 Ry
     xc contribution           =     -49.19112897 Ry
     ewald contribution        =    -112.72028980 Ry

     convergence has been achieved in  13 iterations

     Forces acting on atoms (cartesian axes, Ry/au):

     atom    1 type  2   force =     0.00000000    0.00000000   -0.00000854
     atom    2 type  2   force =     0.00000000    0.00000000    0.00000854
     atom    3 type  1   force =     0.00000169    0.00000086    0.00000599
     atom    4 type  1   force =    -0.00000169   -0.00000086    0.00000599
     atom    5 type  1   force =     0.00000169   -0.00000086   -0.00000599
     atom    6 type  1   force =    -0.00000169    0.00000086   -0.00000599
     atom    7 type  3   force =    -0.00000100   -0.00000193   -0.00000072
     atom    8 type  3   force =     0.00000100    0.00000193   -0.00000072
     atom    9 type  3   force =    -0.00000100    0.00000193    0.00000072
     atom   10 type  3   force =     0.00000100   -0.00000193    0.00000072
     atom   11 type  3   force =     0.00000303    0.00000277   -0.00000926
     atom   12 type  3   force =    -0.00000303   -0.00000277   -0.00000926
     atom   13 type  3   force =     0.00000303   -0.00000277    0.00000926
     atom   14 type  3   force =    -0.00000303    0.00000277    0.00000926
     atom   15 type  3   force =    -0.00000418    0.00000650    0.00000195
     atom   16 type  3   force =     0.00000418   -0.00000650    0.00000195
     atom   17 type  3   force =    -0.00000418   -0.00000650   -0.00000195
     atom   18 type  3   force =     0.00000418    0.00000650   -0.00000195
     atom   19 type  3   force =    -0.00000002    0.00000743    0.00000462
     atom   20 type  3   force =     0.00000002   -0.00000743    0.00000462
     atom   21 type  3   force =    -0.00000002   -0.00000743   -0.00000462
     atom   22 type  3   force =     0.00000002    0.00000743   -0.00000462

     Total force =     0.000036     Total SCF correction =     0.000000


     Computing stress (Cartesian axis) and pressure

          total   stress  (Ry/bohr**3)                   (kbar)     P=        4.88
   0.00003315   0.00000000   0.00000000            4.88        0.00        0.00
   0.00000000   0.00003316   0.00000000            0.00        4.88        0.00
   0.00000000   0.00000000   0.00003315            0.00        0.00        4.88


     Writing all to output data dir ./pwscf.save/ :
     XML data file, charge density, pseudopotentials, collected wavefunctions

     init_run     :     17.05s CPU     18.90s WALL (       2 calls)
     electrons    :   6410.92s CPU   6465.55s WALL (      56 calls)
     update_pot   :     12.33s CPU     13.72s WALL (      54 calls)
     forces       :    168.22s CPU    170.22s WALL (      56 calls)
     stress       :   1439.46s CPU   1443.36s WALL (      56 calls)

     Called by init_run:
     wfcinit      :     13.34s CPU     13.47s WALL (       2 calls)
     potinit      :      0.83s CPU      1.51s WALL (       2 calls)
     hinit0       :      1.20s CPU      2.17s WALL (       2 calls)

     Called by electrons:
     c_bands      :   5616.74s CPU   5656.83s WALL (     408 calls)
     sum_band     :    678.32s CPU    686.60s WALL (     408 calls)
     v_of_rho     :     50.51s CPU     52.89s WALL (     413 calls)
     newd         :     69.01s CPU     70.28s WALL (     413 calls)
     mix_rho      :      5.26s CPU      5.79s WALL (     408 calls)

     Called by c_bands:
     init_us_2    :    140.27s CPU    142.06s WALL (   25110 calls)
     cegterg      :   4944.87s CPU   4982.64s WALL (   11016 calls)

     Called by *egterg:
     cdiaghg      :     74.74s CPU     75.24s WALL (   41865 calls)
     h_psi        :   3456.30s CPU   3487.61s WALL (   44754 calls)
     s_psi        :    666.43s CPU    669.02s WALL (   44754 calls)
     g_psi        :     12.85s CPU     12.91s WALL (   33684 calls)

     Called by h_psi:
     h_psi:calbec :    590.07s CPU    593.16s WALL (   44754 calls)
     vloc_psi     :   2184.49s CPU   2210.19s WALL (   44754 calls)
     add_vuspsi   :    670.84s CPU    673.49s WALL (   44754 calls)

     General routines
     calbec       :   1267.48s CPU   1272.52s WALL (   63330 calls)
     fft          :     41.87s CPU     47.00s WALL (    6762 calls)
     ffts         :      2.38s CPU      3.17s WALL (     821 calls)
     fftw         :   2191.45s CPU   2216.12s WALL ( 1865606 calls)
     interpolate  :      4.07s CPU      4.99s WALL (     413 calls)

     Parallel routines

     PWSCF        :      2h14m CPU      2h15m WALL


   This run was terminated on:  17:46: 7  11Jul2024            

=------------------------------------------------------------------------------=
   JOB DONE.
=------------------------------------------------------------------------------=
