
     Program PWSCF v.7.3.1 starts on 27May2024 at 21:34:21 

     This program is part of the open-source Quantum ESPRESSO suite
     for quantum simulation of materials; please cite
         "P. Giannozzi et al., J. Phys.:Condens. Matter 21 395502 (2009);
         "P. Giannozzi et al., J. Phys.:Condens. Matter 29 465901 (2017);
         "P. Giannozzi et al., J. Chem. Phys. 152 154105 (2020);
          URL http://www.quantum-espresso.org", 
     in publications or presentations arising from this work. More details at
     http://www.quantum-espresso.org/quote

     Parallel version (MPI), running on    24 processors

     MPI processes distributed on     1 nodes
     126233 MiB available memory on the printing compute node when the environment starts

     Waiting for input...
     Reading input from standard input
Warning: card &CELL ignored
Warning: card / ignored

     Current dimensions of program PWSCF are:
     Max number of different atomic species (ntypx) = 10
     Max number of k-points (npk) =  40000
     Max angular momentum in pseudopotentials (lmaxx) =  4

     R & G space division:  proc/nbgrp/npool/nimage =      24
     Subspace diagonalization in iterative solution of the eigenvalue problem:
     a serial algorithm will be used


     Parallelization info
     --------------------
     sticks:   dense  smooth     PW     G-vecs:    dense   smooth      PW
     Min         239     239     63                 9297     9297    1273
     Max         240     240     65                 9300     9300    1274
     Sum        5743    5743   1527               223149   223149   30565

     Using Slab Decomposition


     Title: 
     k-grid_test                                                                


     bravais-lattice index     =            8
     lattice parameter (alat)  =      13.1993  a.u.
     unit-cell volume          =    1652.2482 (a.u.)^3
     number of atoms/cell      =           22
     number of atomic types    =            3
     number of electrons       =        48.00
     number of Kohn-Sham states=           24
     kinetic-energy cutoff     =     100.0000  Ry
     charge density cutoff     =     400.0000  Ry
     scf convergence threshold =      1.0E-08
     mixing beta               =       0.7000
     number of iterations used =            8  plain     mixing
     Exchange-correlation= PBESOL
                           (   1   4  10   8   0   0   0)

     celldm(1)=  13.199283  celldm(2)=   1.034883  celldm(3)=   0.694277
     celldm(4)=   0.000000  celldm(5)=   0.000000  celldm(6)=   0.000000

     crystal axes: (cart. coord. in units of alat)
               a(1) = (   1.000000   0.000000   0.000000 )  
               a(2) = (   0.000000   1.034883   0.000000 )  
               a(3) = (   0.000000   0.000000   0.694277 )  

     reciprocal axes: (cart. coord. in units 2 pi/alat)
               b(1) = (  1.000000  0.000000  0.000000 )  
               b(2) = (  0.000000  0.966293  0.000000 )  
               b(3) = (  0.000000  0.000000  1.440347 )  


     PseudoPot. # 1 for B  read from file:
     /home/mehlhorn/pseudos/b_pbesol_v1.4.uspp.F.UPF
     MD5 check sum: 369b69bef2c3aeed4453bd8b804fd6a8
     Pseudo is Ultrasoft + core correction, Zval =  3.0
     Generated by new atomic code, or converted to UPF format
     Using radial grid of  781 points,  4 beta functions with: 
                l(1) =   0
                l(2) =   0
                l(3) =   1
                l(4) =   1
     Q(r) pseudized with  8 coefficients,  rinner =    1.100   1.100   1.100


     PseudoPot. # 2 for Ba read from file:
     /home/mehlhorn/pseudos/Ba.nc.z_10.oncvpsp4.dojo.v4-sp.upf
     MD5 check sum: c10ed334bb677c0554edec7181ce9143
     Pseudo is Norm-conserving + core correction, Zval = 10.0
     Generated using ONCVPSP code by D. R. Hamann
     Using radial grid of 1938 points,  8 beta functions with: 
                l(1) =   0
                l(2) =   0
                l(3) =   1
                l(4) =   1
                l(5) =   2
                l(6) =   2
                l(7) =   3
                l(8) =   3

     PseudoPot. # 3 for H  read from file:
     /home/mehlhorn/pseudos/H_ONCV_PBEsol-1.0.upf
     MD5 check sum: 398ef8f67c0a7342c05c87c5e19ea467
     Pseudo is Norm-conserving, Zval =  1.0
     Generated using ONCVPSP code by D. R. Hamann
     Using radial grid of 1180 points,  2 beta functions with: 
                l(1) =   0
                l(2) =   0

     atomic species   valence    mass     pseudopotential
     B                 3.00    10.81100     B ( 1.00)
     Ba               10.00   137.32700     Ba( 1.00)
     H                 1.00     1.00794     H ( 1.00)

      4 Sym. Ops. (no inversion) found ( 2 have fractional translation)



   Cartesian axes

     site n.     atom                  positions (alat units)
         1        Ba     tau(   1) = (   0.5000000   0.5174415   0.3471942  )
         2        Ba     tau(   2) = (   0.0000000   0.0000000   0.6942217  )
         3        B      tau(   3) = (   0.6308000   0.2628603   0.0000139  )
         4        B      tau(   4) = (   0.3692000   0.7720228   0.0000139  )
         5        B      tau(   5) = (   0.1308000   0.2545812   0.3471247  )
         6        B      tau(   6) = (   0.8692000   0.7803018   0.3471247  )
         7        H      tau(   7) = (   0.4582000   0.2939068   0.0001805  )
         8        H      tau(   8) = (   0.5418000   0.7409763   0.0001805  )
         9        H      tau(   9) = (   0.9582000   0.2235347   0.3469581  )
        10        H      tau(  10) = (   0.0418000   0.8113483   0.3469581  )
        11        H      tau(  11) = (   0.7204000   0.4141602   0.0000000  )
        12        H      tau(  12) = (   0.2796000   0.6207229   0.0000000  )
        13        H      tau(  13) = (   0.2204000   0.1032813   0.3471386  )
        14        H      tau(  14) = (   0.7796000   0.9316018   0.3471386  )
        15        H      tau(  15) = (   0.6689000   0.1713766   0.5494094  )
        16        H      tau(  16) = (   0.3311000   0.8635064   0.5494094  )
        17        H      tau(  17) = (   0.1689000   0.3460649   0.4920065  )
        18        H      tau(  18) = (   0.8311000   0.6888182   0.4920065  )
        19        H      tau(  19) = (   0.3311000   0.8635064   0.1448679  )
        20        H      tau(  20) = (   0.6689000   0.1713766   0.1448679  )
        21        H      tau(  21) = (   0.8311000   0.6888182   0.2022707  )
        22        H      tau(  22) = (   0.1689000   0.3460649   0.2022707  )

     number of k points=     8
                       cart. coord. in units 2pi/alat
        k(    1) = (   0.0000000   0.0000000   0.0000000), wk =   0.0740741
        k(    2) = (   0.0000000   0.0000000   0.4801156), wk =   0.1481481
        k(    3) = (   0.0000000   0.3220976   0.0000000), wk =   0.1481481
        k(    4) = (   0.0000000   0.3220976   0.4801156), wk =   0.2962963
        k(    5) = (   0.3333333   0.0000000   0.0000000), wk =   0.1481481
        k(    6) = (   0.3333333   0.0000000   0.4801156), wk =   0.2962963
        k(    7) = (   0.3333333   0.3220976   0.0000000), wk =   0.2962963
        k(    8) = (   0.3333333   0.3220976   0.4801156), wk =   0.5925926

     Dense  grid:   223149 G-vectors     FFT dimensions: (  90,  90,  60)

     Estimated max dynamical RAM per process >      33.27 MB

     Estimated total dynamical RAM >     798.42 MB

     Initial potential from superposition of free atoms

     starting charge      47.9682, renormalised to      48.0000
     Starting wfcs are   42 randomized atomic wfcs

     total cpu time spent up to now is        3.8 secs

     Self-consistent Calculation

     iteration #  1     ecut=   100.00 Ry     beta= 0.70
     Davidson diagonalization with overlap
     ethr =  1.00E-02,  avg # of iterations =  2.0

     total cpu time spent up to now is        8.1 secs

     total energy              =    -155.85579570 Ry
     estimated scf accuracy    <       2.28712596 Ry

     iteration #  2     ecut=   100.00 Ry     beta= 0.70
     Davidson diagonalization with overlap
     ethr =  4.76E-03,  avg # of iterations =  2.0

     total cpu time spent up to now is       12.2 secs

     total energy              =    -156.38202120 Ry
     estimated scf accuracy    <       0.41650638 Ry

     iteration #  3     ecut=   100.00 Ry     beta= 0.70
     Davidson diagonalization with overlap
     ethr =  8.68E-04,  avg # of iterations =  2.0

     total cpu time spent up to now is       16.4 secs

     total energy              =    -156.45225219 Ry
     estimated scf accuracy    <       0.00518891 Ry

     iteration #  4     ecut=   100.00 Ry     beta= 0.70
     Davidson diagonalization with overlap
     ethr =  1.08E-05,  avg # of iterations =  5.6

     total cpu time spent up to now is       22.4 secs

     total energy              =    -156.45512484 Ry
     estimated scf accuracy    <       0.00193484 Ry

     iteration #  5     ecut=   100.00 Ry     beta= 0.70
     Davidson diagonalization with overlap
     ethr =  4.03E-06,  avg # of iterations =  3.2

     total cpu time spent up to now is       26.7 secs

     total energy              =    -156.45577322 Ry
     estimated scf accuracy    <       0.00016857 Ry

     iteration #  6     ecut=   100.00 Ry     beta= 0.70
     Davidson diagonalization with overlap
     ethr =  3.51E-07,  avg # of iterations =  4.5

     total cpu time spent up to now is       31.7 secs

     total energy              =    -156.45584601 Ry
     estimated scf accuracy    <       0.00000199 Ry

     iteration #  7     ecut=   100.00 Ry     beta= 0.70
     Davidson diagonalization with overlap
     ethr =  4.14E-09,  avg # of iterations =  8.2

     total cpu time spent up to now is       40.7 secs

     total energy              =    -156.45585588 Ry
     estimated scf accuracy    <       0.00000102 Ry

     iteration #  8     ecut=   100.00 Ry     beta= 0.70
     Davidson diagonalization with overlap
     ethr =  2.12E-09,  avg # of iterations =  3.0

     total cpu time spent up to now is       44.9 secs

     total energy              =    -156.45585613 Ry
     estimated scf accuracy    <       0.00000002 Ry

     iteration #  9     ecut=   100.00 Ry     beta= 0.70
     Davidson diagonalization with overlap
     ethr =  3.86E-11,  avg # of iterations =  6.0

     total cpu time spent up to now is       51.2 secs

     End of self-consistent calculation

          k = 0.0000 0.0000 0.0000 ( 27937 PWs)   bands (ev):

   -25.2011 -25.1967 -10.5612 -10.5253 -10.3873 -10.3769 -10.3295 -10.2888
    -6.6443  -5.8693  -5.5171  -5.3886  -2.2788  -1.4471  -1.4065  -1.0901
    -1.0263  -0.9863  -0.8945  -0.8711  -0.5664  -0.2165  -0.2160  -0.1531

          k = 0.0000 0.0000 0.4801 ( 27897 PWs)   bands (ev):

   -25.1951 -25.1929 -10.5435 -10.5306 -10.4731 -10.4579 -10.3823 -10.3807
    -6.0929  -5.6714  -5.6604  -5.5997  -1.8585  -1.8384  -1.6527  -1.3807
    -1.1648  -1.0933  -0.7619  -0.5070  -0.4912  -0.4479  -0.3419  -0.3171

          k = 0.0000 0.3221 0.0000 ( 27890 PWs)   bands (ev):

   -25.2000 -25.1978 -10.5242 -10.4905 -10.4359 -10.4145 -10.3192 -10.2989
    -6.4085  -5.9101  -5.6925  -5.5048  -1.9213  -1.6541  -1.4168  -1.0331
    -0.9964  -0.8119  -0.7320  -0.6918  -0.6753  -0.6082  -0.2896  -0.2688

          k = 0.0000 0.3221 0.4801 ( 27888 PWs)   bands (ev):

   -25.1945 -25.1934 -10.5670 -10.5572 -10.4329 -10.4262 -10.3965 -10.3863
    -6.0398  -5.8771  -5.5747  -5.5564  -1.8994  -1.8545  -1.6098  -1.3453
    -0.9994  -0.8227  -0.7923  -0.6281  -0.5596  -0.4858  -0.4235  -0.3766

          k = 0.3333 0.0000 0.0000 ( 27916 PWs)   bands (ev):

   -25.2000 -25.1978 -10.5191 -10.4972 -10.4314 -10.4229 -10.3192 -10.2988
    -6.4040  -5.9595  -5.5634  -5.5599  -1.9689  -1.4753  -1.2805  -1.0703
    -0.9353  -0.9006  -0.8711  -0.7567  -0.6886  -0.5918  -0.3833  -0.3226

          k = 0.3333 0.0000 0.4801 ( 27904 PWs)   bands (ev):

   -25.1945 -25.1934 -10.5679 -10.5601 -10.4423 -10.4182 -10.4000 -10.3843
    -5.9679  -5.7550  -5.6632  -5.6323  -2.0800  -1.9475  -1.5742  -1.2737
    -1.0055  -0.7710  -0.7426  -0.7381  -0.5272  -0.3981  -0.3956  -0.3026

          k = 0.3333 0.3221 0.0000 ( 27954 PWs)   bands (ev):

   -25.1994 -25.1983 -10.5582 -10.5204 -10.4166 -10.3749 -10.3140 -10.3038
    -6.2941  -6.0484  -5.6369  -5.5402  -1.7746  -1.6160  -1.3122  -1.0600
    -1.0272  -0.9580  -0.8452  -0.6805  -0.6104  -0.4957  -0.4735  -0.3016

          k = 0.3333 0.3221 0.4801 ( 27894 PWs)   bands (ev):

   -25.1942 -25.1937 -10.5603 -10.5394 -10.4743 -10.4344 -10.3884 -10.3792
    -5.9169  -5.7928  -5.6865  -5.6240  -2.0259  -1.9552  -1.5873  -1.4595
    -0.8870  -0.8418  -0.7111  -0.5941  -0.5150  -0.4589  -0.3218  -0.3175

     highest occupied level (ev):    -0.1531

!    total energy              =    -156.45585615 Ry
     estimated scf accuracy    <          2.3E-09 Ry

     The total energy is the sum of the following terms:
     one-electron contribution =     -35.60701464 Ry
     hartree contribution      =      30.32207953 Ry
     xc contribution           =     -48.96375778 Ry
     ewald contribution        =    -102.20716326 Ry

     convergence has been achieved in   9 iterations

     Writing all to output data dir ./pwscf.save/ :
     XML data file, charge density, pseudopotentials, collected wavefunctions

     init_run     :      2.76s CPU      3.60s WALL (       1 calls)
     electrons    :     46.90s CPU     47.37s WALL (       1 calls)

     Called by init_run:
     wfcinit      :      2.17s CPU      2.18s WALL (       1 calls)
     potinit      :      0.05s CPU      0.06s WALL (       1 calls)
     hinit0       :      0.32s CPU      1.13s WALL (       1 calls)

     Called by electrons:
     c_bands      :     41.34s CPU     41.64s WALL (       9 calls)
     sum_band     :      4.72s CPU      4.81s WALL (       9 calls)
     v_of_rho     :      0.36s CPU      0.39s WALL (      10 calls)
     newd         :      0.48s CPU      0.49s WALL (      10 calls)
     mix_rho      :      0.07s CPU      0.08s WALL (       9 calls)

     Called by c_bands:
     init_us_2    :      0.85s CPU      0.87s WALL (     152 calls)
     cegterg      :     39.95s CPU     40.24s WALL (      72 calls)

     Called by *egterg:
     cdiaghg      :      0.63s CPU      0.63s WALL (     365 calls)
     h_psi        :     27.67s CPU     27.94s WALL (     373 calls)
     s_psi        :      7.50s CPU      7.52s WALL (     373 calls)
     g_psi        :      0.09s CPU      0.09s WALL (     293 calls)

     Called by h_psi:
     h_psi:calbec :      7.91s CPU      7.94s WALL (     373 calls)
     vloc_psi     :     12.00s CPU     12.24s WALL (     373 calls)
     add_vuspsi   :      7.66s CPU      7.68s WALL (     373 calls)

     General routines
     calbec       :     10.05s CPU     10.08s WALL (     445 calls)
     fft          :      0.41s CPU      1.22s WALL (     110 calls)
     ffts         :      0.02s CPU      0.02s WALL (       9 calls)
     fftw         :     12.34s CPU     12.61s WALL (   14386 calls)

     Parallel routines

     PWSCF        :     50.02s CPU     51.55s WALL


   This run was terminated on:  21:35:12  27May2024            

=------------------------------------------------------------------------------=
   JOB DONE.
=------------------------------------------------------------------------------=
