
     Program PWSCF v.7.3.1 starts on  6Aug2024 at 14:42:27 

     This program is part of the open-source Quantum ESPRESSO suite
     for quantum simulation of materials; please cite
         "P. Giannozzi et al., J. Phys.:Condens. Matter 21 395502 (2009);
         "P. Giannozzi et al., J. Phys.:Condens. Matter 29 465901 (2017);
         "P. Giannozzi et al., J. Chem. Phys. 152 154105 (2020);
          URL http://www.quantum-espresso.org", 
     in publications or presentations arising from this work. More details at
     http://www.quantum-espresso.org/quote

     Parallel version (MPI), running on    24 processors

     MPI processes distributed on     1 nodes
     94282 MiB available memory on the printing compute node when the environment starts

     Waiting for input...
     Reading input from standard input

     Current dimensions of program PWSCF are:
     Max number of different atomic species (ntypx) = 10
     Max number of k-points (npk) =  40000
     Max angular momentum in pseudopotentials (lmaxx) =  4

     R & G space division:  proc/nbgrp/npool/nimage =      24
     Subspace diagonalization in iterative solution of the eigenvalue problem:
     a serial algorithm will be used


     Parallelization info
     --------------------
     sticks:   dense  smooth     PW     G-vecs:    dense   smooth      PW
     Min         448     223     61                23958     8471    1223
     Max         450     224     62                23960     8474    1226
     Sum       10761    5375   1473               575021   203355   29365

     Using Slab Decomposition


     Title: 
     volume variation                                                           


     bravais-lattice index     =            8
     lattice parameter (alat)  =      12.8464  a.u.
     unit-cell volume          =    1505.4537 (a.u.)^3
     number of atoms/cell      =           22
     number of atomic types    =            3
     number of electrons       =        48.00
     number of Kohn-Sham states=           24
     kinetic-energy cutoff     =     100.0000  Ry
     charge density cutoff     =     800.0000  Ry
     scf convergence threshold =      1.0E-10
     mixing beta               =       0.7000
     number of iterations used =            8  plain     mixing
     energy convergence thresh.=      1.0E-05
     force convergence thresh. =      1.0E-05
     press convergence thresh. =      5.0E-01
     Exchange-correlation= PBESOL
                           (   1   4  10   8   0   0   0)
     nstep                     =          300


     celldm(1)=  12.846439  celldm(2)=   1.025571  celldm(3)=   0.692394
     celldm(4)=   0.000000  celldm(5)=   0.000000  celldm(6)=   0.000000

     crystal axes: (cart. coord. in units of alat)
               a(1) = (   1.000000   0.000000   0.000000 )  
               a(2) = (   0.000000   1.025571   0.000000 )  
               a(3) = (   0.000000   0.000000   0.692394 )  

     reciprocal axes: (cart. coord. in units 2 pi/alat)
               b(1) = (  1.000000  0.000000  0.000000 )  
               b(2) = (  0.000000  0.975067  0.000000 )  
               b(3) = (  0.000000  0.000000  1.444264 )  


     PseudoPot. # 1 for B  read from file:
     /home/mehlhorn/pseudos/b_pbesol_v1.4.uspp.F.UPF
     MD5 check sum: 369b69bef2c3aeed4453bd8b804fd6a8
     Pseudo is Ultrasoft + core correction, Zval =  3.0
     Generated by new atomic code, or converted to UPF format
     Using radial grid of  781 points,  4 beta functions with: 
                l(1) =   0
                l(2) =   0
                l(3) =   1
                l(4) =   1
     Q(r) pseudized with  8 coefficients,  rinner =    1.100   1.100   1.100


     PseudoPot. # 2 for Ba read from file:
     /home/mehlhorn/pseudos/Ba.nc.z_10.oncvpsp4.dojo.v4-sp.upf
     MD5 check sum: c10ed334bb677c0554edec7181ce9143
     Pseudo is Norm-conserving + core correction, Zval = 10.0
     Generated using ONCVPSP code by D. R. Hamann
     Using radial grid of 1938 points,  8 beta functions with: 
                l(1) =   0
                l(2) =   0
                l(3) =   1
                l(4) =   1
                l(5) =   2
                l(6) =   2
                l(7) =   3
                l(8) =   3

     PseudoPot. # 3 for H  read from file:
     /home/mehlhorn/pseudos/H_ONCV_PBEsol-1.0.upf
     MD5 check sum: 398ef8f67c0a7342c05c87c5e19ea467
     Pseudo is Norm-conserving, Zval =  1.0
     Generated using ONCVPSP code by D. R. Hamann
     Using radial grid of 1180 points,  2 beta functions with: 
                l(1) =   0
                l(2) =   0

     atomic species   valence    mass     pseudopotential
     B                 3.00    10.81100     B ( 1.00)
     Ba               10.00   137.32700     Ba( 1.00)
     H                 1.00     1.00794     H ( 1.00)

      4 Sym. Ops. (no inversion) found ( 2 have fractional translation)



   Cartesian axes

     site n.     atom                  positions (alat units)
         1        Ba     tau(   1) = (   0.5000000   0.5127855   0.3462657  )
         2        Ba     tau(   2) = (   0.0000000   0.0000000   0.6923255  )
         3        B      tau(   3) = (   0.6102570   0.2453190   0.0000455  )
         4        B      tau(   4) = (   0.3897430   0.7802519   0.0000455  )
         5        B      tau(   5) = (   0.1102570   0.2674665   0.3461516  )
         6        B      tau(   6) = (   0.8897430   0.7581045   0.3461516  )
         7        H      tau(   7) = (   0.4340973   0.2996264   0.0001599  )
         8        H      tau(   8) = (   0.5659027   0.7259445   0.0001599  )
         9        H      tau(   9) = (   0.9340973   0.2131590   0.3460372  )
        10        H      tau(  10) = (   0.0659027   0.8124119   0.3460372  )
        11        H      tau(  11) = (   0.7220603   0.3933629  -0.0000058  )
        12        H      tau(  12) = (   0.2779397   0.6322081  -0.0000058  )
        13        H      tau(  13) = (   0.2220603   0.1194226   0.3462029  )
        14        H      tau(  14) = (   0.7779397   0.9061483   0.3462029  )
        15        H      tau(  15) = (   0.6392499   0.1457279   0.5404125  )
        16        H      tau(  16) = (   0.3607501   0.8798430   0.5404125  )
        17        H      tau(  17) = (   0.1392499   0.3670576   0.4981787  )
        18        H      tau(  18) = (   0.8607501   0.6585133   0.4981787  )
        19        H      tau(  19) = (   0.3605328   0.8798946   0.1519977  )
        20        H      tau(  20) = (   0.6394672   0.1456763   0.1519977  )
        21        H      tau(  21) = (   0.8605328   0.6584617   0.1941994  )
        22        H      tau(  22) = (   0.1394672   0.3671092   0.1941994  )

     number of k points=    27
                       cart. coord. in units 2pi/alat
        k(    1) = (   0.0000000   0.0000000   0.0000000), wk =   0.0312500
        k(    2) = (   0.0000000   0.0000000   0.3610660), wk =   0.0625000
        k(    3) = (   0.0000000   0.0000000  -0.7221320), wk =   0.0312500
        k(    4) = (   0.0000000   0.2437667   0.0000000), wk =   0.0625000
        k(    5) = (   0.0000000   0.2437667   0.3610660), wk =   0.1250000
        k(    6) = (   0.0000000   0.2437667  -0.7221320), wk =   0.0625000
        k(    7) = (   0.0000000  -0.4875333   0.0000000), wk =   0.0312500
        k(    8) = (   0.0000000  -0.4875333   0.3610660), wk =   0.0625000
        k(    9) = (   0.0000000  -0.4875333  -0.7221320), wk =   0.0312500
        k(   10) = (   0.2500000   0.0000000   0.0000000), wk =   0.0625000
        k(   11) = (   0.2500000   0.0000000   0.3610660), wk =   0.1250000
        k(   12) = (   0.2500000   0.0000000  -0.7221320), wk =   0.0625000
        k(   13) = (   0.2500000   0.2437667   0.0000000), wk =   0.1250000
        k(   14) = (   0.2500000   0.2437667   0.3610660), wk =   0.2500000
        k(   15) = (   0.2500000   0.2437667  -0.7221320), wk =   0.1250000
        k(   16) = (   0.2500000  -0.4875333   0.0000000), wk =   0.0625000
        k(   17) = (   0.2500000  -0.4875333   0.3610660), wk =   0.1250000
        k(   18) = (   0.2500000  -0.4875333  -0.7221320), wk =   0.0625000
        k(   19) = (  -0.5000000   0.0000000   0.0000000), wk =   0.0312500
        k(   20) = (  -0.5000000   0.0000000   0.3610660), wk =   0.0625000
        k(   21) = (  -0.5000000   0.0000000  -0.7221320), wk =   0.0312500
        k(   22) = (  -0.5000000   0.2437667   0.0000000), wk =   0.0625000
        k(   23) = (  -0.5000000   0.2437667   0.3610660), wk =   0.1250000
        k(   24) = (  -0.5000000   0.2437667  -0.7221320), wk =   0.0625000
        k(   25) = (  -0.5000000  -0.4875333   0.0000000), wk =   0.0312500
        k(   26) = (  -0.5000000  -0.4875333   0.3610660), wk =   0.0625000
        k(   27) = (  -0.5000000  -0.4875333  -0.7221320), wk =   0.0312500

     Dense  grid:   575021 G-vectors     FFT dimensions: ( 120, 120,  90)

     Smooth grid:   203355 G-vectors     FFT dimensions: (  90,  90,  60)

     Estimated max dynamical RAM per process >      93.76 MB

     Estimated total dynamical RAM >       2.20 GB

     Initial potential from superposition of free atoms

     starting charge      47.9682, renormalised to      48.0000
     Starting wfcs are   42 randomized atomic wfcs

     total cpu time spent up to now is       12.6 secs

     Self-consistent Calculation

     iteration #  1     ecut=   100.00 Ry     beta= 0.70
     Davidson diagonalization with overlap
     ethr =  1.00E-02,  avg # of iterations =  2.0

     total cpu time spent up to now is       29.4 secs

     total energy              =    -155.95065995 Ry
     estimated scf accuracy    <       1.96870299 Ry

     iteration #  2     ecut=   100.00 Ry     beta= 0.70
     Davidson diagonalization with overlap
     ethr =  4.10E-03,  avg # of iterations =  2.0

     total cpu time spent up to now is       45.7 secs

     total energy              =    -156.40200957 Ry
     estimated scf accuracy    <       0.36461895 Ry

     iteration #  3     ecut=   100.00 Ry     beta= 0.70
     Davidson diagonalization with overlap
     ethr =  7.60E-04,  avg # of iterations =  2.0

     total cpu time spent up to now is       62.0 secs

     total energy              =    -156.46305394 Ry
     estimated scf accuracy    <       0.00470756 Ry

     iteration #  4     ecut=   100.00 Ry     beta= 0.70
     Davidson diagonalization with overlap
     ethr =  9.81E-06,  avg # of iterations =  5.1

     total cpu time spent up to now is       85.6 secs

     total energy              =    -156.46591821 Ry
     estimated scf accuracy    <       0.00178203 Ry

     iteration #  5     ecut=   100.00 Ry     beta= 0.70
     Davidson diagonalization with overlap
     ethr =  3.71E-06,  avg # of iterations =  2.9

     total cpu time spent up to now is      102.4 secs

     total energy              =    -156.46652771 Ry
     estimated scf accuracy    <       0.00018029 Ry

     iteration #  6     ecut=   100.00 Ry     beta= 0.70
     Davidson diagonalization with overlap
     ethr =  3.76E-07,  avg # of iterations =  4.1

     total cpu time spent up to now is      120.9 secs

     total energy              =    -156.46659321 Ry
     estimated scf accuracy    <       0.00000140 Ry

     iteration #  7     ecut=   100.00 Ry     beta= 0.70
     Davidson diagonalization with overlap
     ethr =  2.91E-09,  avg # of iterations =  8.9

     total cpu time spent up to now is      158.8 secs

     total energy              =    -156.46660443 Ry
     estimated scf accuracy    <       0.00000126 Ry

     iteration #  8     ecut=   100.00 Ry     beta= 0.70
     Davidson diagonalization with overlap
     ethr =  2.63E-09,  avg # of iterations =  2.0

     total cpu time spent up to now is      175.0 secs

     total energy              =    -156.46660467 Ry
     estimated scf accuracy    <       0.00000002 Ry

     iteration #  9     ecut=   100.00 Ry     beta= 0.70
     Davidson diagonalization with overlap
     ethr =  3.54E-11,  avg # of iterations =  5.9

     total cpu time spent up to now is      199.1 secs

     total energy              =    -156.46660470 Ry
     estimated scf accuracy    <          3.2E-09 Ry

     iteration # 10     ecut=   100.00 Ry     beta= 0.70
     Davidson diagonalization with overlap
     ethr =  6.56E-12,  avg # of iterations =  3.1

     total cpu time spent up to now is      217.6 secs

     total energy              =    -156.46660470 Ry
     estimated scf accuracy    <          4.6E-10 Ry

     iteration # 11     ecut=   100.00 Ry     beta= 0.70
     Davidson diagonalization with overlap
     ethr =  9.51E-13,  avg # of iterations =  4.0

     total cpu time spent up to now is      235.8 secs

     End of self-consistent calculation

          k = 0.0000 0.0000 0.0000 ( 25409 PWs)   bands (ev):

   -24.3073 -24.3004  -9.7669  -9.6960  -9.5357  -9.5048  -9.4718  -9.4195
    -6.1308  -5.2096  -4.6394  -4.4757  -1.8672  -0.9657  -0.9634  -0.5679
    -0.2135  -0.2112  -0.1872  -0.0364   0.1134   0.5061   0.5326   0.5727

          k = 0.0000 0.0000 0.3611 ( 25420 PWs)   bands (ev):

   -24.3011 -24.2962  -9.6875  -9.6826  -9.6598  -9.6403  -9.5215  -9.5046
    -5.6819  -4.9909  -4.7785  -4.6698  -1.5195  -1.2681  -0.8083  -0.7446
    -0.6189  -0.5133  -0.1604   0.1141   0.3249   0.3420   0.4102   0.5604

          k = 0.0000 0.0000-0.7221 ( 25388 PWs)   bands (ev):

   -24.2934 -24.2934  -9.8680  -9.8678  -9.5673  -9.5672  -9.5320  -9.5319
    -5.0149  -5.0143  -4.8944  -4.8939  -1.2765  -1.2761  -1.2592  -1.2577
    -0.2182  -0.2178  -0.1904  -0.1884   0.3701   0.3703   0.3913   0.3919

          k = 0.0000 0.2438 0.0000 ( 25408 PWs)   bands (ev):

   -24.3063 -24.3014  -9.7419  -9.6709  -9.5776  -9.5334  -9.4640  -9.4270
    -5.9494  -5.1312  -4.9008  -4.5909  -1.5281  -1.1342  -1.0502  -0.3101
    -0.3070  -0.2706   0.0021   0.1107   0.1993   0.2014   0.4243   0.5045

          k = 0.0000 0.2438 0.3611 ( 25417 PWs)   bands (ev):

   -24.3004 -24.2969  -9.7220  -9.6864  -9.6251  -9.6176  -9.5278  -9.5222
    -5.5783  -5.0574  -4.8249  -4.7116  -1.3338  -1.2922  -1.0756  -0.5406
    -0.4952  -0.2999  -0.2933   0.1621   0.2518   0.2843   0.3901   0.4480

          k = 0.0000 0.2438-0.7221 ( 25440 PWs)   bands (ev):

   -24.2934 -24.2934  -9.8797  -9.8796  -9.5525  -9.5525  -9.5312  -9.5312
    -5.2367  -5.2367  -4.6652  -4.6651  -1.3799  -1.3792  -1.1034  -1.1027
    -0.1570  -0.1567  -0.1426  -0.1411   0.2134   0.2134   0.3858   0.3861

          k = 0.0000-0.4875 0.0000 ( 25422 PWs)   bands (ev):

   -24.3038 -24.3038  -9.6732  -9.6732  -9.5986  -9.5986  -9.4453  -9.4453
    -5.4877  -5.4877  -4.8488  -4.8488  -1.2485  -1.2485  -0.6042  -0.6042
    -0.3768  -0.3768   0.1170   0.1170   0.2305   0.2305   0.3646   0.3646

          k = 0.0000-0.4875 0.3611 ( 25468 PWs)   bands (ev):

   -24.2986 -24.2986  -9.7197  -9.7197  -9.5827  -9.5827  -9.5506  -9.5506
    -5.3178  -5.3178  -4.7926  -4.7926  -1.2731  -1.2731  -0.8601  -0.8601
    -0.2674  -0.2674   0.0081   0.0081   0.1678   0.1678   0.3704   0.3704

          k = 0.0000-0.4875-0.7221 ( 25512 PWs)   bands (ev):

   -24.2934 -24.2934  -9.8904  -9.8904  -9.5410  -9.5410  -9.5281  -9.5281
    -5.3477  -5.3477  -4.5471  -4.5471  -1.4633  -1.4633  -0.8847  -0.8847
    -0.2201  -0.2201  -0.0646  -0.0646   0.0309   0.0309   0.4220   0.4220

          k = 0.2500 0.0000 0.0000 ( 25427 PWs)   bands (ev):

   -24.3063 -24.3014  -9.7347  -9.6796  -9.5707  -9.5456  -9.4640  -9.4270
    -5.9570  -5.2581  -4.6678  -4.6146  -1.6843  -0.8663  -0.8498  -0.6962
    -0.1942  -0.1484  -0.0835  -0.0157   0.0768   0.1015   0.4773   0.5203

          k = 0.2500 0.0000 0.3611 ( 25407 PWs)   bands (ev):

   -24.3003 -24.2969  -9.7135  -9.6964  -9.6499  -9.5969  -9.5416  -9.5116
    -5.5426  -4.9903  -4.8034  -4.7898  -1.4886  -1.2406  -1.0933  -0.5923
    -0.5539  -0.3148  -0.0811   0.0511   0.1720   0.3065   0.4925   0.5118

          k = 0.2500 0.0000-0.7221 ( 25450 PWs)   bands (ev):

   -24.2934 -24.2934  -9.8833  -9.8832  -9.5567  -9.5567  -9.5288  -9.5288
    -5.0486  -5.0482  -4.8341  -4.8338  -1.7216  -1.7212  -0.8507  -0.8502
    -0.2340  -0.2337   0.0581   0.0596   0.1899   0.1901   0.4279   0.4282

          k = 0.2500 0.2438 0.0000 ( 25416 PWs)   bands (ev):

   -24.3055 -24.3021  -9.7572  -9.6588  -9.6126  -9.5100  -9.4583  -9.4322
    -5.8209  -5.2214  -4.8821  -4.6590  -1.4092  -1.0942  -0.8643  -0.4182
    -0.3476  -0.3055  -0.0118   0.1203   0.1481   0.2110   0.2972   0.4343

          k = 0.2500 0.2438 0.3611 ( 25440 PWs)   bands (ev):

   -24.2998 -24.2974  -9.7143  -9.6821  -9.6803  -9.5816  -9.5486  -9.5070
    -5.4552  -5.0123  -4.9036  -4.7879  -1.4474  -1.2021  -1.1215  -0.5832
    -0.4118  -0.2496  -0.1431   0.0634   0.1616   0.2724   0.4125   0.4924

          k = 0.2500 0.2438-0.7221 ( 25446 PWs)   bands (ev):

   -24.2934 -24.2934  -9.8894  -9.8698  -9.5730  -9.5420  -9.5348  -9.5294
    -5.2379  -5.0889  -4.7883  -4.6361  -1.6975  -1.6282  -0.9091  -0.8313
    -0.2762  -0.2753   0.0322   0.0819   0.2206   0.2468   0.3746   0.4152

          k = 0.2500-0.4875 0.0000 ( 25380 PWs)   bands (ev):

   -24.3038 -24.3038  -9.7353  -9.7353  -9.5379  -9.5379  -9.4450  -9.4450
    -5.4733  -5.4733  -4.8576  -4.8576  -1.1480  -1.1480  -0.6165  -0.6165
    -0.4100  -0.4100   0.0515   0.0515   0.2630   0.2630   0.2993   0.2993

          k = 0.2500-0.4875 0.3611 ( 25410 PWs)   bands (ev):

   -24.2986 -24.2986  -9.7110  -9.7110  -9.6299  -9.6299  -9.5179  -9.5179
    -5.2352  -5.2352  -4.8602  -4.8602  -1.3536  -1.3536  -0.8061  -0.8061
    -0.2743  -0.2743   0.0357   0.0357   0.1700   0.1700   0.3867   0.3867

          k = 0.2500-0.4875-0.7221 ( 25440 PWs)   bands (ev):

   -24.2934 -24.2934  -9.8768  -9.8768  -9.5589  -9.5589  -9.5340  -9.5340
    -5.2535  -5.2535  -4.6153  -4.6153  -1.5944  -1.5944  -0.9355  -0.9355
    -0.1705  -0.1705  -0.0497  -0.0497   0.2287   0.2287   0.4027   0.4027

          k =-0.5000 0.0000 0.0000 ( 25364 PWs)   bands (ev):

   -24.3038 -24.3038  -9.6571  -9.6571  -9.6214  -9.6214  -9.4453  -9.4453
    -5.5564  -5.5564  -4.7100  -4.7100  -1.2783  -1.2783  -0.5057  -0.5057
    -0.1567  -0.1567  -0.1254  -0.1254  -0.0318  -0.0318   0.3779   0.3779

          k =-0.5000 0.0000 0.3611 ( 25384 PWs)   bands (ev):

   -24.2986 -24.2986  -9.7219  -9.7219  -9.6004  -9.6004  -9.5394  -9.5394
    -5.2136  -5.2136  -4.8520  -4.8520  -1.4057  -1.4057  -0.8599  -0.8599
    -0.2765  -0.2765  -0.0923  -0.0923   0.2695   0.2695   0.4767   0.4767

          k =-0.5000 0.0000-0.7221 ( 25408 PWs)   bands (ev):

   -24.2934 -24.2934  -9.8975  -9.8975  -9.5487  -9.5487  -9.5241  -9.5241
    -5.0725  -5.0725  -4.7816  -4.7816  -1.9246  -1.9246  -0.5881  -0.5881
    -0.2450  -0.2450  -0.0732  -0.0732   0.3617   0.3617   0.3985   0.3985

          k =-0.5000 0.2438 0.0000 ( 25432 PWs)   bands (ev):

   -24.3038 -24.3038  -9.7342  -9.7342  -9.5424  -9.5424  -9.4450  -9.4450
    -5.5128  -5.5128  -4.7833  -4.7833  -1.1726  -1.1726  -0.5121  -0.5121
    -0.3462  -0.3462  -0.1618  -0.1618   0.1779   0.1779   0.3546   0.3546

          k =-0.5000 0.2438 0.3611 ( 25384 PWs)   bands (ev):

   -24.2986 -24.2986  -9.7124  -9.7124  -9.6340  -9.6340  -9.5168  -9.5168
    -5.1678  -5.1678  -4.9049  -4.9049  -1.4083  -1.4083  -0.8383  -0.8383
    -0.2410  -0.2410  -0.0448  -0.0448   0.2622   0.2622   0.4101   0.4101

          k =-0.5000 0.2438-0.7221 ( 25444 PWs)   bands (ev):

   -24.2933 -24.2933  -9.8806  -9.8806  -9.5612  -9.5612  -9.5332  -9.5332
    -5.1038  -5.1038  -4.7443  -4.7443  -1.8321  -1.8321  -0.7802  -0.7802
    -0.2009  -0.2009  -0.0109  -0.0109   0.3155   0.3155   0.4471   0.4471

          k =-0.5000-0.4875 0.0000 ( 25436 PWs)   bands (ev):

   -24.3038 -24.3038  -9.7719  -9.7719  -9.5028  -9.5028  -9.4447  -9.4447
    -5.4600  -5.4600  -4.8646  -4.8646  -1.0178  -1.0178  -0.6639  -0.6639
    -0.4402  -0.4402   0.0299   0.0299   0.1946   0.1946   0.2925   0.2925

          k =-0.5000-0.4875 0.3611 ( 25388 PWs)   bands (ev):

   -24.2986 -24.2986  -9.6949  -9.6949  -9.6667  -9.6667  -9.5030  -9.5030
    -5.0871  -5.0871  -4.9925  -4.9925  -1.3926  -1.3926  -0.8829  -0.8829
    -0.0958  -0.0958   0.0460   0.0460   0.1848   0.1848   0.3072   0.3072

          k =-0.5000-0.4875-0.7221 ( 25416 PWs)   bands (ev):

   -24.2933 -24.2933  -9.8616  -9.8616  -9.5793  -9.5793  -9.5389  -9.5389
    -5.1302  -5.1302  -4.7119  -4.7119  -1.6878  -1.6878  -1.0533  -1.0533
     0.0090   0.0090   0.0579   0.0579   0.2014   0.2014   0.4150   0.4150

     highest occupied level (ev):     0.5727

!    total energy              =    -156.46660470 Ry
     estimated scf accuracy    <          5.2E-11 Ry

     The total energy is the sum of the following terms:
     one-electron contribution =     -24.36576287 Ry
     hartree contribution      =      25.94377488 Ry
     xc contribution           =     -48.87491989 Ry
     ewald contribution        =    -109.16969682 Ry

     convergence has been achieved in  11 iterations

     Forces acting on atoms (cartesian axes, Ry/au):

     atom    1 type  2   force =     0.00000000    0.00000000    0.00001035
     atom    2 type  2   force =     0.00000000    0.00000000   -0.00001035
     atom    3 type  1   force =     0.00031236    0.00157267   -0.00001467
     atom    4 type  1   force =    -0.00031236   -0.00157267   -0.00001467
     atom    5 type  1   force =     0.00031236   -0.00157267    0.00001467
     atom    6 type  1   force =    -0.00031236    0.00157267    0.00001467
     atom    7 type  3   force =     0.01385109   -0.00352260   -0.00002058
     atom    8 type  3   force =    -0.01385109    0.00352260   -0.00002058
     atom    9 type  3   force =     0.01385109    0.00352260    0.00002058
     atom   10 type  3   force =    -0.01385109   -0.00352260    0.00002058
     atom   11 type  3   force =    -0.00915280   -0.01107556    0.00000790
     atom   12 type  3   force =     0.00915280    0.01107556    0.00000790
     atom   13 type  3   force =    -0.00915280    0.01107556   -0.00000790
     atom   14 type  3   force =     0.00915280   -0.01107556   -0.00000790
     atom   15 type  3   force =    -0.00170263    0.00814023    0.01236369
     atom   16 type  3   force =     0.00170263   -0.00814023    0.01236369
     atom   17 type  3   force =    -0.00170263   -0.00814023   -0.01236369
     atom   18 type  3   force =     0.00170263    0.00814023   -0.01236369
     atom   19 type  3   force =     0.00175990   -0.00816019   -0.01236927
     atom   20 type  3   force =    -0.00175990    0.00816019   -0.01236927
     atom   21 type  3   force =     0.00175990    0.00816019    0.01236927
     atom   22 type  3   force =    -0.00175990   -0.00816019    0.01236927

     Total force =     0.058583     Total SCF correction =     0.000004


     Computing stress (Cartesian axis) and pressure

          total   stress  (Ry/bohr**3)                   (kbar)     P=      -29.82
  -0.00018880   0.00000000   0.00000000          -27.77        0.00        0.00
   0.00000000  -0.00019255   0.00000000            0.00      -28.32        0.00
   0.00000000   0.00000000  -0.00022681            0.00        0.00      -33.37

     Volume is kept fixed: isostatic pressure set to zero

     BFGS Geometry Optimization
     Energy error            =      0.0E+00 Ry
     Gradient error          =      1.4E-02 Ry/Bohr
     Cell gradient error     =      3.5E+00 kbar

     number of scf cycles    =   1
     number of bfgs steps    =   0

     enthalpy           new  =    -156.4666046963 Ry

     new trust radius        =       0.0149226319 bohr
ibrav =      8
 celldm(1) =     12.85091157
 celldm(2) =      1.02547480
 celldm(3) =      0.69173634
Input lattice vectors:
     1.00034814     0.00000000     0.00000000
     0.00000000     1.02583181     0.00000000
     0.00000000     0.00000000     0.69197716
New lattice vectors in INITIAL alat:
     1.00034814     0.00000000     0.00000000
     0.00000000     1.02583181     0.00000000
     0.00000000     0.00000000     0.69197716
New lattice vectors in NEW alat (for information only):
     1.00000000     0.00000000     0.00000000
     0.00000000     1.02547480     0.00000000
     0.00000000     0.00000000     0.69173634
Discrepancy in bohr =     0.000000    0.000000    0.000000
     new conv_thr            =            1.0E-10 Ry

     new unit-cell volume =   1505.45365 a.u.^3 (   223.08522 Ang^3 )
     density =      2.48632 g/cm^3

CELL_PARAMETERS (alat= 12.84643918)
   1.000348143   0.000000000   0.000000000
   0.000000000   1.025831814   0.000000000
   0.000000000   0.000000000   0.691977162

ATOMIC_POSITIONS (crystal)
Ba               0.5000000000        0.5000000000        0.5001003297
Ba               0.0000000000        0.0000000000        0.9998996703
B                0.6102813315        0.2393217482        0.0000640078
B                0.3897186685        0.7606782518        0.0000640078
B                0.1102813315        0.2606782518        0.4999359922
B                0.8897186685        0.7393217482        0.4999359922
H                0.4351754572        0.2918883571        0.0002286191
H                0.5648245428        0.7081116429        0.0002286191
H                0.9351754572        0.2081116429        0.4997713809
H                0.0648245428        0.7918883571        0.4997713809
H                0.7213477901        0.3827143549       -0.0000074831
H                0.2786522099        0.6172856451       -0.0000074831
H                0.2213477901        0.1172856451        0.5000074831
H                0.7786522099        0.8827143549        0.5000074831
H                0.6391173875        0.1427122522        0.7818884047
H                0.3608826125        0.8572877478        0.7818884047
H                0.1391173875        0.3572877478        0.7181115953
H                0.8608826125        0.6427122522        0.7181115953
H                0.3606698259        0.8573365422        0.2181342295
H                0.6393301741        0.1426634578        0.2181342295
H                0.8606698259        0.6426634578        0.2818657705
H                0.1393301741        0.3573365422        0.2818657705



     Writing config-only to output data dir ./pwscf.save/ :
     XML data file
     NEW-OLD atomic charge density approx. for the potential

     total cpu time spent up to now is      268.0 secs

     Self-consistent Calculation

     iteration #  1     ecut=   100.00 Ry     beta= 0.70
     Davidson diagonalization with overlap
     ethr =  1.00E-06,  avg # of iterations =  4.0

     total cpu time spent up to now is      291.7 secs

     total energy              =    -156.46917200 Ry
     estimated scf accuracy    <       0.00083624 Ry

     iteration #  2     ecut=   100.00 Ry     beta= 0.70
     Davidson diagonalization with overlap
     ethr =  1.74E-06,  avg # of iterations =  2.0

     total cpu time spent up to now is      307.9 secs

     total energy              =    -156.46941911 Ry
     estimated scf accuracy    <       0.00019409 Ry

     iteration #  3     ecut=   100.00 Ry     beta= 0.70
     Davidson diagonalization with overlap
     ethr =  4.04E-07,  avg # of iterations =  2.0

     total cpu time spent up to now is      324.2 secs

     total energy              =    -156.46944405 Ry
     estimated scf accuracy    <       0.00000303 Ry

     iteration #  4     ecut=   100.00 Ry     beta= 0.70
     Davidson diagonalization with overlap
     ethr =  6.30E-09,  avg # of iterations =  3.0

     total cpu time spent up to now is      343.3 secs

     total energy              =    -156.46944561 Ry
     estimated scf accuracy    <       0.00000228 Ry

     iteration #  5     ecut=   100.00 Ry     beta= 0.70
     Davidson diagonalization with overlap
     ethr =  4.76E-09,  avg # of iterations =  2.0

     total cpu time spent up to now is      359.5 secs

     total energy              =    -156.46944576 Ry
     estimated scf accuracy    <       0.00000016 Ry

     iteration #  6     ecut=   100.00 Ry     beta= 0.70
     Davidson diagonalization with overlap
     ethr =  3.27E-10,  avg # of iterations =  2.8

     total cpu time spent up to now is      376.2 secs

     total energy              =    -156.46944583 Ry
     estimated scf accuracy    <       0.00000003 Ry

     iteration #  7     ecut=   100.00 Ry     beta= 0.70
     Davidson diagonalization with overlap
     ethr =  6.05E-11,  avg # of iterations =  2.3

     total cpu time spent up to now is      392.6 secs

     total energy              =    -156.46944583 Ry
     estimated scf accuracy    <          1.2E-09 Ry

     iteration #  8     ecut=   100.00 Ry     beta= 0.70
     Davidson diagonalization with overlap
     ethr =  2.53E-12,  avg # of iterations =  5.3

     total cpu time spent up to now is      416.8 secs

     End of self-consistent calculation

          k = 0.0000 0.0000 0.0000 ( 25409 PWs)   bands (ev):

   -24.3207 -24.3137  -9.7804  -9.7089  -9.5484  -9.5172  -9.4838  -9.4317
    -6.1571  -5.2517  -4.6797  -4.5185  -1.8666  -0.9819  -0.9709  -0.5928
    -0.2325  -0.2224  -0.2020  -0.0569   0.0953   0.4770   0.5034   0.5415

          k = 0.0000 0.0000 0.3613 ( 25420 PWs)   bands (ev):

   -24.3144 -24.3095  -9.7005  -9.6959  -9.6733  -9.6528  -9.5340  -9.5170
    -5.7097  -5.0316  -4.8203  -4.7137  -1.5170  -1.2711  -0.8116  -0.7617
    -0.6343  -0.5295  -0.1814   0.0890   0.2980   0.3141   0.3850   0.5310

          k = 0.0000 0.0000-0.7226 ( 25388 PWs)   bands (ev):

   -24.3067 -24.3067  -9.8823  -9.8821  -9.5795  -9.5794  -9.5444  -9.5444
    -5.0496  -5.0491  -4.9385  -4.9380  -1.2772  -1.2768  -1.2589  -1.2574
    -0.2411  -0.2407  -0.2109  -0.2089   0.3434   0.3436   0.3629   0.3634

          k = 0.0000 0.2437 0.0000 ( 25408 PWs)   bands (ev):

   -24.3196 -24.3147  -9.7553  -9.6838  -9.5902  -9.5458  -9.4760  -9.4392
    -5.9768  -5.1733  -4.9369  -4.6335  -1.5324  -1.1416  -1.0623  -0.3261
    -0.3257  -0.2967  -0.0146   0.0908   0.1757   0.1792   0.3957   0.4759

          k = 0.0000 0.2437 0.3613 ( 25417 PWs)   bands (ev):

   -24.3137 -24.3102  -9.7351  -9.6997  -9.6383  -9.6302  -9.5404  -9.5345
    -5.6077  -5.0969  -4.8651  -4.7546  -1.3341  -1.2947  -1.0817  -0.5536
    -0.5116  -0.3229  -0.3109   0.1371   0.2258   0.2572   0.3638   0.4205

          k = 0.0000 0.2437-0.7226 ( 25440 PWs)   bands (ev):

   -24.3067 -24.3067  -9.8939  -9.8938  -9.5646  -9.5646  -9.5437  -9.5437
    -5.2756  -5.2755  -4.7048  -4.7047  -1.3800  -1.3794  -1.1049  -1.1042
    -0.1792  -0.1791  -0.1647  -0.1631   0.1882   0.1883   0.3574   0.3577

          k = 0.0000-0.4874 0.0000 ( 25422 PWs)   bands (ev):

   -24.3172 -24.3172  -9.6866  -9.6866  -9.6109  -9.6109  -9.4574  -9.4574
    -5.5186  -5.5186  -4.8907  -4.8907  -1.2549  -1.2549  -0.6206  -0.6206
    -0.3936  -0.3936   0.0888   0.0888   0.2098   0.2098   0.3398   0.3398

          k = 0.0000-0.4874 0.3613 ( 25468 PWs)   bands (ev):

   -24.3119 -24.3119  -9.7328  -9.7328  -9.5959  -9.5959  -9.5627  -9.5627
    -5.3517  -5.3517  -4.8338  -4.8338  -1.2752  -1.2752  -0.8697  -0.8697
    -0.2877  -0.2877  -0.0128  -0.0128   0.1403   0.1403   0.3440   0.3440

          k = 0.0000-0.4874-0.7226 ( 25512 PWs)   bands (ev):

   -24.3067 -24.3067  -9.9046  -9.9046  -9.5531  -9.5531  -9.5406  -9.5406
    -5.3869  -5.3869  -4.5860  -4.5860  -1.4632  -1.4632  -0.8868  -0.8868
    -0.2440  -0.2440  -0.0848  -0.0848   0.0054   0.0054   0.3931   0.3931

          k = 0.2499 0.0000 0.0000 ( 25427 PWs)   bands (ev):

   -24.3196 -24.3147  -9.7481  -9.6924  -9.5834  -9.5580  -9.4760  -9.4392
    -5.9847  -5.2974  -4.7086  -4.6562  -1.6851  -0.8762  -0.8620  -0.7151
    -0.2091  -0.1695  -0.1014  -0.0370   0.0567   0.0774   0.4482   0.4891

          k = 0.2499 0.0000 0.3613 ( 25407 PWs)   bands (ev):

   -24.3137 -24.3102  -9.7266  -9.7098  -9.6629  -9.6098  -9.5540  -9.5240
    -5.5719  -5.0294  -4.8454  -4.8324  -1.4852  -1.2473  -1.0946  -0.6079
    -0.5726  -0.3330  -0.1047   0.0277   0.1473   0.2812   0.4631   0.4846

          k = 0.2499 0.0000-0.7226 ( 25450 PWs)   bands (ev):

   -24.3067 -24.3067  -9.8976  -9.8975  -9.5688  -9.5688  -9.5413  -9.5412
    -5.0891  -5.0887  -4.8727  -4.8724  -1.7182  -1.7177  -0.8558  -0.8554
    -0.2562  -0.2559   0.0355   0.0370   0.1648   0.1650   0.3995   0.3998

          k = 0.2499 0.2437 0.0000 ( 25416 PWs)   bands (ev):

   -24.3189 -24.3154  -9.7704  -9.6721  -9.6249  -9.5226  -9.4704  -9.4444
    -5.8500  -5.2604  -4.9201  -4.6996  -1.4150  -1.1037  -0.8776  -0.4353
    -0.3638  -0.3224  -0.0358   0.1001   0.1231   0.1898   0.2695   0.4072

          k = 0.2499 0.2437 0.3613 ( 25440 PWs)   bands (ev):

   -24.3131 -24.3107  -9.7276  -9.6952  -9.6931  -9.5948  -9.5607  -9.5194
    -5.4860  -5.0522  -4.9423  -4.8300  -1.4462  -1.2037  -1.1293  -0.5991
    -0.4297  -0.2689  -0.1656   0.0410   0.1361   0.2459   0.3853   0.4653

          k = 0.2499 0.2437-0.7226 ( 25446 PWs)   bands (ev):

   -24.3067 -24.3067  -9.9037  -9.8840  -9.5851  -9.5541  -9.5471  -9.5419
    -5.2781  -5.1285  -4.8278  -4.6749  -1.6942  -1.6246  -0.9155  -0.8364
    -0.2980  -0.2967   0.0108   0.0587   0.1944   0.2204   0.3480   0.3857

          k = 0.2499-0.4874 0.0000 ( 25380 PWs)   bands (ev):

   -24.3172 -24.3172  -9.7484  -9.7484  -9.5505  -9.5505  -9.4572  -9.4572
    -5.5064  -5.5064  -4.8967  -4.8967  -1.1577  -1.1577  -0.6326  -0.6326
    -0.4261  -0.4261   0.0286   0.0286   0.2415   0.2415   0.2725   0.2725

          k = 0.2499-0.4874 0.3613 ( 25410 PWs)   bands (ev):

   -24.3119 -24.3119  -9.7240  -9.7240  -9.6429  -9.6429  -9.5304  -9.5304
    -5.2701  -5.2701  -4.9004  -4.9004  -1.3544  -1.3544  -0.8187  -0.8187
    -0.2931  -0.2931   0.0127   0.0127   0.1445   0.1445   0.3601   0.3601

          k = 0.2499-0.4874-0.7226 ( 25440 PWs)   bands (ev):

   -24.3067 -24.3067  -9.8911  -9.8911  -9.5710  -9.5710  -9.5464  -9.5464
    -5.2933  -5.2933  -4.6543  -4.6543  -1.5911  -1.5911  -0.9419  -0.9419
    -0.1933  -0.1933  -0.0704  -0.0704   0.2021   0.2021   0.3746   0.3746

          k =-0.4998 0.0000 0.0000 ( 25364 PWs)   bands (ev):

   -24.3172 -24.3172  -9.6707  -9.6707  -9.6335  -9.6335  -9.4574  -9.4574
    -5.5885  -5.5885  -4.7518  -4.7518  -1.2825  -1.2825  -0.5216  -0.5216
    -0.1716  -0.1716  -0.1501  -0.1501  -0.0537  -0.0537   0.3486   0.3486

          k =-0.4998 0.0000 0.3613 ( 25384 PWs)   bands (ev):

   -24.3119 -24.3119  -9.7351  -9.7351  -9.6133  -9.6133  -9.5518  -9.5518
    -5.2469  -5.2469  -4.8946  -4.8946  -1.4043  -1.4043  -0.8712  -0.8712
    -0.2976  -0.2976  -0.1148  -0.1148   0.2449   0.2449   0.4482   0.4482

          k =-0.4998 0.0000-0.7226 ( 25408 PWs)   bands (ev):

   -24.3066 -24.3066  -9.9117  -9.9117  -9.5608  -9.5608  -9.5366  -9.5366
    -5.1153  -5.1153  -4.8183  -4.8183  -1.9195  -1.9195  -0.5952  -0.5952
    -0.2671  -0.2671  -0.0963  -0.0963   0.3371   0.3371   0.3694   0.3694

          k =-0.4998 0.2437 0.0000 ( 25432 PWs)   bands (ev):

   -24.3171 -24.3171  -9.7472  -9.7472  -9.5550  -9.5550  -9.4572  -9.4572
    -5.5463  -5.5463  -4.8225  -4.8225  -1.1813  -1.1813  -0.5276  -0.5276
    -0.3621  -0.3621  -0.1840  -0.1840   0.1566   0.1566   0.3262   0.3262

          k =-0.4998 0.2437 0.3613 ( 25384 PWs)   bands (ev):

   -24.3119 -24.3119  -9.7255  -9.7255  -9.6469  -9.6469  -9.5292  -9.5292
    -5.2022  -5.2022  -4.9460  -4.9460  -1.4078  -1.4078  -0.8507  -0.8507
    -0.2616  -0.2616  -0.0673  -0.0673   0.2368   0.2368   0.3833   0.3833

          k =-0.4998 0.2437-0.7226 ( 25444 PWs)   bands (ev):

   -24.3066 -24.3066  -9.8949  -9.8949  -9.5733  -9.5733  -9.5457  -9.5457
    -5.1454  -5.1454  -4.7824  -4.7824  -1.8271  -1.8271  -0.7878  -0.7878
    -0.2222  -0.2222  -0.0348  -0.0348   0.2897   0.2897   0.4191   0.4191

          k =-0.4998-0.4874 0.0000 ( 25436 PWs)   bands (ev):

   -24.3171 -24.3171  -9.7848  -9.7848  -9.5154  -9.5154  -9.4569  -9.4569
    -5.4955  -5.4955  -4.9008  -4.9008  -1.0341  -1.0341  -0.6747  -0.6747
    -0.4557  -0.4557   0.0067   0.0067   0.1697   0.1697   0.2704   0.2704

          k =-0.4998-0.4874 0.3613 ( 25388 PWs)   bands (ev):

   -24.3119 -24.3119  -9.7076  -9.7076  -9.6801  -9.6801  -9.5155  -9.5155
    -5.1237  -5.1237  -5.0311  -5.0311  -1.3927  -1.3927  -0.8961  -0.8961
    -0.1159  -0.1159   0.0200   0.0200   0.1601   0.1601   0.2837   0.2837

          k =-0.4998-0.4874-0.7226 ( 25416 PWs)   bands (ev):

   -24.3066 -24.3066  -9.8759  -9.8759  -9.5914  -9.5914  -9.5512  -9.5512
    -5.1710  -5.1710  -4.7508  -4.7508  -1.6826  -1.6826  -1.0603  -1.0603
    -0.0149  -0.0149   0.0317   0.0317   0.1777   0.1777   0.3887   0.3887

     highest occupied level (ev):     0.5415

!    total energy              =    -156.46944583 Ry
     estimated scf accuracy    <          4.8E-11 Ry

     The total energy is the sum of the following terms:
     one-electron contribution =     -24.79793540 Ry
     hartree contribution      =      26.15963374 Ry
     xc contribution           =     -48.92873195 Ry
     ewald contribution        =    -108.90241223 Ry

     convergence has been achieved in   8 iterations

     Forces acting on atoms (cartesian axes, Ry/au):

     atom    1 type  2   force =     0.00000000    0.00000000    0.00000852
     atom    2 type  2   force =     0.00000000    0.00000000   -0.00000852
     atom    3 type  1   force =     0.00041892    0.00173697   -0.00001076
     atom    4 type  1   force =    -0.00041892   -0.00173697   -0.00001076
     atom    5 type  1   force =     0.00041892   -0.00173697    0.00001076
     atom    6 type  1   force =    -0.00041892    0.00173697    0.00001076
     atom    7 type  3   force =     0.00903069   -0.00208846   -0.00001807
     atom    8 type  3   force =    -0.00903069    0.00208846   -0.00001807
     atom    9 type  3   force =     0.00903069    0.00208846    0.00001807
     atom   10 type  3   force =    -0.00903069   -0.00208846    0.00001807
     atom   11 type  3   force =    -0.00597804   -0.00682456    0.00000564
     atom   12 type  3   force =     0.00597804    0.00682456    0.00000564
     atom   13 type  3   force =    -0.00597804    0.00682456   -0.00000564
     atom   14 type  3   force =     0.00597804   -0.00682456   -0.00000564
     atom   15 type  3   force =    -0.00087552    0.00527345    0.00772070
     atom   16 type  3   force =     0.00087552   -0.00527345    0.00772070
     atom   17 type  3   force =    -0.00087552   -0.00527345   -0.00772070
     atom   18 type  3   force =     0.00087552    0.00527345   -0.00772070
     atom   19 type  3   force =     0.00092430   -0.00529094   -0.00772910
     atom   20 type  3   force =    -0.00092430    0.00529094   -0.00772910
     atom   21 type  3   force =     0.00092430    0.00529094    0.00772910
     atom   22 type  3   force =    -0.00092430   -0.00529094    0.00772910

     Total force =     0.037320     Total SCF correction =     0.000003


     Computing stress (Cartesian axis) and pressure

          total   stress  (Ry/bohr**3)                   (kbar)     P=      -23.57
  -0.00014951   0.00000000   0.00000000          -21.99        0.00        0.00
   0.00000000  -0.00015178   0.00000000            0.00      -22.33        0.00
   0.00000000   0.00000000  -0.00017939            0.00        0.00      -26.39

     Volume is kept fixed: isostatic pressure set to zero
     Energy error            =      2.8E-03 Ry
     Gradient error          =      9.0E-03 Ry/Bohr
     Cell gradient error     =      2.8E+00 kbar

     number of scf cycles    =   2
     number of bfgs steps    =   1

     enthalpy           old  =    -156.4666046963 Ry
     enthalpy           new  =    -156.4694458312 Ry

     CASE: enthalpy          _new < enthalpy          _old

     new trust radius        =       0.0223764985 bohr
ibrav =      8
 celldm(1) =     12.85910082
 celldm(2) =      1.02533662
 celldm(3) =      0.69050864
Input lattice vectors:
     1.00098562     0.00000000     0.00000000
     0.00000000     1.02634721     0.00000000
     0.00000000     0.00000000     0.69118922
New lattice vectors in INITIAL alat:
     1.00098562     0.00000000     0.00000000
     0.00000000     1.02634721     0.00000000
     0.00000000     0.00000000     0.69118922
New lattice vectors in NEW alat (for information only):
     1.00000000     0.00000000     0.00000000
     0.00000000     1.02533662     0.00000000
     0.00000000     0.00000000     0.69050864
Discrepancy in bohr =     0.000000    0.000000    0.000000
     new conv_thr            =            1.0E-10 Ry

     new unit-cell volume =   1505.45365 a.u.^3 (   223.08522 Ang^3 )
     density =      2.48632 g/cm^3

CELL_PARAMETERS (alat= 12.84643918)
   1.000985615   0.000000000   0.000000000
   0.000000000   1.026347208   0.000000000
   0.000000000   0.000000000   0.691189216

ATOMIC_POSITIONS (crystal)
Ba               0.5000000000        0.5000000000        0.5001026038
Ba               0.0000000000        0.0000000000        0.9998973962
B                0.6103587114        0.2396347322        0.0000611339
B                0.3896412886        0.7603652678        0.0000611339
B                0.1103587114        0.2603652678        0.4999388661
B                0.8896412886        0.7396347322        0.4999388661
H                0.4368480773        0.2915110246        0.0002237977
H                0.5631519227        0.7084889754        0.0002237977
H                0.9368480773        0.2084889754        0.4997762023
H                0.0631519227        0.7915110246        0.4997762023
H                0.7202405766        0.3814815964       -0.0000059766
H                0.2797594234        0.6185184036       -0.0000059766
H                0.2202405766        0.1185184036        0.5000059766
H                0.7797594234        0.8814815964        0.5000059766
H                0.6389549988        0.1436645654        0.7839522168
H                0.3610450012        0.8563354346        0.7839522168
H                0.1389549988        0.3563354346        0.7160477832
H                0.8610450012        0.6436645654        0.7160477832
H                0.3608412391        0.8563810758        0.2160681779
H                0.6391587609        0.1436189242        0.2160681779
H                0.8608412391        0.6436189242        0.2839318221
H                0.1391587609        0.3563810758        0.2839318221



     Writing config-only to output data dir ./pwscf.save/ :
     XML data file
     NEW-OLD atomic charge density approx. for the potential

     total cpu time spent up to now is      449.0 secs

     Self-consistent Calculation

     iteration #  1     ecut=   100.00 Ry     beta= 0.70
     Davidson diagonalization with overlap
     ethr =  1.00E-06,  avg # of iterations =  5.0

     total cpu time spent up to now is      473.4 secs

     total energy              =    -156.47065105 Ry
     estimated scf accuracy    <       0.00201279 Ry

     iteration #  2     ecut=   100.00 Ry     beta= 0.70
     Davidson diagonalization with overlap
     ethr =  4.19E-06,  avg # of iterations =  2.0

     total cpu time spent up to now is      489.7 secs

     total energy              =    -156.47125673 Ry
     estimated scf accuracy    <       0.00048668 Ry

     iteration #  3     ecut=   100.00 Ry     beta= 0.70
     Davidson diagonalization with overlap
     ethr =  1.01E-06,  avg # of iterations =  2.0

     total cpu time spent up to now is      506.0 secs

     total energy              =    -156.47131988 Ry
     estimated scf accuracy    <       0.00000743 Ry

     iteration #  4     ecut=   100.00 Ry     beta= 0.70
     Davidson diagonalization with overlap
     ethr =  1.55E-08,  avg # of iterations =  3.0

     total cpu time spent up to now is      525.0 secs

     total energy              =    -156.47132357 Ry
     estimated scf accuracy    <       0.00000476 Ry

     iteration #  5     ecut=   100.00 Ry     beta= 0.70
     Davidson diagonalization with overlap
     ethr =  9.92E-09,  avg # of iterations =  2.0

     total cpu time spent up to now is      541.3 secs

     total energy              =    -156.47132396 Ry
     estimated scf accuracy    <       0.00000026 Ry

     iteration #  6     ecut=   100.00 Ry     beta= 0.70
     Davidson diagonalization with overlap
     ethr =  5.46E-10,  avg # of iterations =  3.1

     total cpu time spent up to now is      558.9 secs

     total energy              =    -156.47132408 Ry
     estimated scf accuracy    <       0.00000008 Ry

     iteration #  7     ecut=   100.00 Ry     beta= 0.70
     Davidson diagonalization with overlap
     ethr =  1.76E-10,  avg # of iterations =  2.1

     total cpu time spent up to now is      575.3 secs

     total energy              =    -156.47132409 Ry
     estimated scf accuracy    <          1.9E-09 Ry

     iteration #  8     ecut=   100.00 Ry     beta= 0.70
     Davidson diagonalization with overlap
     ethr =  3.95E-12,  avg # of iterations =  6.2

     total cpu time spent up to now is      602.6 secs

     total energy              =    -156.47132410 Ry
     estimated scf accuracy    <          1.5E-10 Ry

     iteration #  9     ecut=   100.00 Ry     beta= 0.70
     Davidson diagonalization with overlap
     ethr =  3.16E-13,  avg # of iterations =  3.8

     total cpu time spent up to now is      619.6 secs

     total energy              =    -156.47132410 Ry
     estimated scf accuracy    <          1.4E-10 Ry

     iteration # 10     ecut=   100.00 Ry     beta= 0.70
     Davidson diagonalization with overlap
     ethr =  2.96E-13,  avg # of iterations =  1.0

     total cpu time spent up to now is      632.4 secs

     total energy              =    -156.47132410 Ry
     estimated scf accuracy    <          1.5E-10 Ry

     iteration # 11     ecut=   100.00 Ry     beta= 0.70
     Davidson diagonalization with overlap
     ethr =  2.96E-13,  avg # of iterations =  2.5

     total cpu time spent up to now is      647.5 secs

     total energy              =    -156.47132410 Ry
     estimated scf accuracy    <          1.3E-10 Ry

     iteration # 12     ecut=   100.00 Ry     beta= 0.70
     Davidson diagonalization with overlap
     ethr =  2.72E-13,  avg # of iterations =  1.0

     total cpu time spent up to now is      660.2 secs

     End of self-consistent calculation

          k = 0.0000 0.0000 0.0000 ( 25409 PWs)   bands (ev):

   -24.3403 -24.3334  -9.8007  -9.7281  -9.5673  -9.5356  -9.5016  -9.4500
    -6.1978  -5.3160  -4.7412  -4.5842  -1.8680  -1.0083  -0.9841  -0.6319
    -0.2610  -0.2416  -0.2200  -0.0847   0.0724   0.4329   0.4559   0.4910

          k = 0.0000 0.0000 0.3617 ( 25420 PWs)   bands (ev):

   -24.3340 -24.3291  -9.7198  -9.7162  -9.6940  -9.6714  -9.5525  -9.5353
    -5.7519  -5.0928  -4.8846  -4.7813  -1.5147  -1.2769  -0.8188  -0.7893
    -0.6561  -0.5515  -0.2122   0.0519   0.2545   0.2710   0.3471   0.4848

          k = 0.0000 0.0000-0.7234 ( 25388 PWs)   bands (ev):

   -24.3262 -24.3262  -9.9046  -9.9045  -9.5972  -9.5972  -9.5628  -9.5627
    -5.1015  -5.1010  -5.0065  -5.0060  -1.2769  -1.2764  -1.2600  -1.2586
    -0.2780  -0.2776  -0.2420  -0.2400   0.3026   0.3027   0.3193   0.3197

          k = 0.0000 0.2436 0.0000 ( 25408 PWs)   bands (ev):

   -24.3393 -24.3344  -9.7755  -9.7033  -9.6089  -9.5642  -9.4939  -9.4574
    -6.0192  -5.2380  -4.9916  -4.6988  -1.5409  -1.1546  -1.0833  -0.3504
    -0.3464  -0.3373  -0.0446   0.0644   0.1336   0.1531   0.3521   0.4293

          k = 0.0000 0.2436 0.3617 ( 25417 PWs)   bands (ev):

   -24.3333 -24.3298  -9.7548  -9.7199  -9.6582  -9.6490  -9.5590  -9.5527
    -5.6524  -5.1567  -4.9269  -4.8206  -1.3356  -1.2998  -1.0934  -0.5714
    -0.5356  -0.3580  -0.3371   0.0997   0.1847   0.2150   0.3240   0.3770

          k = 0.0000 0.2436-0.7234 ( 25440 PWs)   bands (ev):

   -24.3262 -24.3262  -9.9161  -9.9160  -9.5824  -9.5824  -9.5621  -9.5621
    -5.3346  -5.3346  -4.7652  -4.7652  -1.3815  -1.3808  -1.1061  -1.1054
    -0.2155  -0.2155  -0.1977  -0.1960   0.1503   0.1504   0.3128   0.3130

          k = 0.0000-0.4872 0.0000 ( 25422 PWs)   bands (ev):

   -24.3369 -24.3369  -9.7069  -9.7069  -9.6290  -9.6290  -9.4754  -9.4754
    -5.5667  -5.5667  -4.9543  -4.9543  -1.2665  -1.2665  -0.6487  -0.6487
    -0.4152  -0.4152   0.0446   0.0446   0.1824   0.1824   0.2988   0.2988

          k = 0.0000-0.4872 0.3617 ( 25468 PWs)   bands (ev):

   -24.3315 -24.3315  -9.7528  -9.7528  -9.6157  -9.6157  -9.5807  -9.5807
    -5.4034  -5.4034  -4.8969  -4.8969  -1.2797  -1.2797  -0.8848  -0.8848
    -0.3174  -0.3174  -0.0433  -0.0433   0.0964   0.0964   0.3029   0.3029

          k = 0.0000-0.4872-0.7234 ( 25512 PWs)   bands (ev):

   -24.3262 -24.3262  -9.9266  -9.9266  -9.5708  -9.5708  -9.5591  -9.5591
    -5.4465  -5.4465  -4.6455  -4.6455  -1.4645  -1.4645  -0.8882  -0.8882
    -0.2815  -0.2815  -0.1164  -0.1164  -0.0329  -0.0329   0.3473   0.3473

          k = 0.2498 0.0000 0.0000 ( 25427 PWs)   bands (ev):

   -24.3393 -24.3344  -9.7684  -9.7115  -9.6024  -9.5763  -9.4939  -9.4574
    -6.0277  -5.3579  -4.7709  -4.7198  -1.6888  -0.8925  -0.8835  -0.7457
    -0.2280  -0.1976  -0.1251  -0.0721   0.0304   0.0396   0.4013   0.4386

          k = 0.2498 0.0000 0.3617 ( 25407 PWs)   bands (ev):

   -24.3333 -24.3298  -9.7465  -9.7299  -9.6824  -9.6290  -9.5723  -9.5424
    -5.6165  -5.0888  -4.9099  -4.8977  -1.4813  -1.2582  -1.0974  -0.6311
    -0.6026  -0.3587  -0.1399  -0.0091   0.1112   0.2425   0.4165   0.4422

          k = 0.2498 0.0000-0.7234 ( 25450 PWs)   bands (ev):

   -24.3262 -24.3262  -9.9198  -9.9197  -9.5866  -9.5865  -9.5597  -9.5597
    -5.1513  -5.1509  -4.9310  -4.9307  -1.7131  -1.7126  -0.8633  -0.8630
    -0.2921  -0.2917   0.0011   0.0026   0.1266   0.1267   0.3557   0.3561

          k = 0.2498 0.2436 0.0000 ( 25416 PWs)   bands (ev):

   -24.3386 -24.3351  -9.7901  -9.6921  -9.6430  -9.5412  -9.4883  -9.4625
    -5.8951  -5.3208  -4.9778  -4.7616  -1.4260  -1.1197  -0.9005  -0.4636
    -0.3847  -0.3443  -0.0742   0.0733   0.0827   0.1619   0.2246   0.3636

          k = 0.2498 0.2436 0.3617 ( 25440 PWs)   bands (ev):

   -24.3328 -24.3303  -9.7477  -9.7153  -9.7121  -9.6147  -9.5788  -9.5378
    -5.5329  -5.1127  -5.0018  -4.8947  -1.4454  -1.2070  -1.1423  -0.6228
    -0.4576  -0.2967  -0.1993   0.0065   0.0965   0.2053   0.3435   0.4228

          k = 0.2498 0.2436-0.7234 ( 25446 PWs)   bands (ev):

   -24.3262 -24.3262  -9.9260  -9.9062  -9.6029  -9.5719  -9.5654  -9.5605
    -5.3394  -5.1890  -4.8877  -4.7337  -1.6898  -1.6198  -0.9243  -0.8434
    -0.3328  -0.3315  -0.0205   0.0240   0.1514   0.1807   0.3087   0.3381

          k = 0.2498-0.4872 0.0000 ( 25380 PWs)   bands (ev):

   -24.3368 -24.3368  -9.7679  -9.7679  -9.5692  -9.5692  -9.4752  -9.4752
    -5.5581  -5.5581  -4.9559  -4.9559  -1.1741  -1.1741  -0.6603  -0.6603
    -0.4466  -0.4466  -0.0087  -0.0087   0.2129   0.2129   0.2296   0.2296

          k = 0.2498-0.4872 0.3617 ( 25410 PWs)   bands (ev):

   -24.3315 -24.3315  -9.7437  -9.7437  -9.6624  -9.6624  -9.5488  -9.5488
    -5.3233  -5.3233  -4.9619  -4.9619  -1.3566  -1.3566  -0.8383  -0.8383
    -0.3209  -0.3209  -0.0221  -0.0221   0.1043   0.1043   0.3194   0.3194

          k = 0.2498-0.4872-0.7234 ( 25440 PWs)   bands (ev):

   -24.3262 -24.3262  -9.9132  -9.9132  -9.5887  -9.5887  -9.5648  -9.5648
    -5.3539  -5.3539  -4.7138  -4.7138  -1.5871  -1.5871  -0.9503  -0.9503
    -0.2287  -0.2287  -0.1030  -0.1030   0.1618   0.1618   0.3304   0.3304

          k =-0.4995 0.0000 0.0000 ( 25364 PWs)   bands (ev):

   -24.3368 -24.3368  -9.6912  -9.6912  -9.6513  -9.6513  -9.4754  -9.4754
    -5.6384  -5.6384  -4.8153  -4.8153  -1.2918  -1.2918  -0.5462  -0.5462
    -0.1903  -0.1903  -0.1897  -0.1897  -0.0834  -0.0834   0.3006   0.3006

          k =-0.4995 0.0000 0.3617 ( 25384 PWs)   bands (ev):

   -24.3315 -24.3315  -9.7551  -9.7551  -9.6327  -9.6327  -9.5701  -9.5701
    -5.2979  -5.2979  -4.9597  -4.9597  -1.4028  -1.4028  -0.8890  -0.8890
    -0.3301  -0.3301  -0.1486  -0.1486   0.2086   0.2086   0.4028   0.4028

          k =-0.4995 0.0000-0.7234 ( 25408 PWs)   bands (ev):

   -24.3262 -24.3262  -9.9339  -9.9339  -9.5785  -9.5785  -9.5551  -9.5551
    -5.1814  -5.1814  -4.8736  -4.8736  -1.9120  -1.9120  -0.6054  -0.6054
    -0.3028  -0.3028  -0.1313  -0.1313   0.3004   0.3004   0.3228   0.3228

          k =-0.4995 0.2436 0.0000 ( 25432 PWs)   bands (ev):

   -24.3368 -24.3368  -9.7667  -9.7667  -9.5737  -9.5737  -9.4752  -9.4752
    -5.5985  -5.5985  -4.8820  -4.8820  -1.1969  -1.1969  -0.5530  -0.5530
    -0.3824  -0.3824  -0.2198  -0.2198   0.1281   0.1281   0.2803   0.2803

          k =-0.4995 0.2436 0.3617 ( 25384 PWs)   bands (ev):

   -24.3315 -24.3315  -9.7452  -9.7452  -9.6664  -9.6664  -9.5477  -9.5477
    -5.2549  -5.2549  -5.0087  -5.0087  -1.4078  -1.4078  -0.8696  -0.8696
    -0.2944  -0.2944  -0.1004  -0.1004   0.1990   0.1990   0.3409   0.3409

          k =-0.4995 0.2436-0.7234 ( 25444 PWs)   bands (ev):

   -24.3262 -24.3262  -9.9171  -9.9171  -9.5909  -9.5909  -9.5641  -9.5641
    -5.2092  -5.2092  -4.8398  -4.8398  -1.8199  -1.8199  -0.7987  -0.7987
    -0.2567  -0.2567  -0.0703  -0.0703   0.2488   0.2488   0.3763   0.3763

          k =-0.4995-0.4872 0.0000 ( 25436 PWs)   bands (ev):

   -24.3368 -24.3368  -9.8042  -9.8042  -9.5341  -9.5341  -9.4749  -9.4749
    -5.5508  -5.5508  -4.9555  -4.9555  -1.0599  -1.0599  -0.6946  -0.6946
    -0.4753  -0.4753  -0.0324  -0.0324   0.1310   0.1310   0.2408   0.2408

          k =-0.4995-0.4872 0.3617 ( 25388 PWs)   bands (ev):

   -24.3315 -24.3315  -9.7262  -9.7262  -9.7006  -9.7006  -9.5339  -9.5339
    -5.1798  -5.1798  -5.0897  -5.0897  -1.3938  -1.3938  -0.9160  -0.9160
    -0.1461  -0.1461  -0.0205  -0.0205   0.1208   0.1208   0.2492   0.2492

          k =-0.4995-0.4872-0.7234 ( 25416 PWs)   bands (ev):

   -24.3262 -24.3262  -9.8983  -9.8983  -9.6091  -9.6091  -9.5694  -9.5694
    -5.2332  -5.2332  -4.8098  -4.8098  -1.6756  -1.6756  -1.0700  -1.0700
    -0.0500  -0.0500  -0.0091  -0.0091   0.1377   0.1377   0.3494   0.3494

     highest occupied level (ev):     0.4910

!    total energy              =    -156.47132410 Ry
     estimated scf accuracy    <          4.2E-11 Ry

     The total energy is the sum of the following terms:
     one-electron contribution =     -25.47848863 Ry
     hartree contribution      =      26.50005192 Ry
     xc contribution           =     -49.01152007 Ry
     ewald contribution        =    -108.48136732 Ry

     convergence has been achieved in  12 iterations

     Forces acting on atoms (cartesian axes, Ry/au):

     atom    1 type  2   force =     0.00000000    0.00000000    0.00000516
     atom    2 type  2   force =     0.00000000    0.00000000   -0.00000516
     atom    3 type  1   force =     0.00042642    0.00114621   -0.00000854
     atom    4 type  1   force =    -0.00042642   -0.00114621   -0.00000854
     atom    5 type  1   force =     0.00042642   -0.00114621    0.00000854
     atom    6 type  1   force =    -0.00042642    0.00114621    0.00000854
     atom    7 type  3   force =     0.00137991    0.00020280   -0.00001444
     atom    8 type  3   force =    -0.00137991   -0.00020280   -0.00001444
     atom    9 type  3   force =     0.00137991   -0.00020280    0.00001444
     atom   10 type  3   force =    -0.00137991    0.00020280    0.00001444
     atom   11 type  3   force =    -0.00068175    0.00024114    0.00000211
     atom   12 type  3   force =     0.00068175   -0.00024114    0.00000211
     atom   13 type  3   force =    -0.00068175   -0.00024114   -0.00000211
     atom   14 type  3   force =     0.00068175    0.00024114   -0.00000211
     atom   15 type  3   force =     0.00039302    0.00095665    0.00057381
     atom   16 type  3   force =    -0.00039302   -0.00095665    0.00057381
     atom   17 type  3   force =     0.00039302   -0.00095665   -0.00057381
     atom   18 type  3   force =    -0.00039302    0.00095665   -0.00057381
     atom   19 type  3   force =    -0.00035866   -0.00096729   -0.00058216
     atom   20 type  3   force =     0.00035866    0.00096729   -0.00058216
     atom   21 type  3   force =    -0.00035866    0.00096729    0.00058216
     atom   22 type  3   force =     0.00035866   -0.00096729    0.00058216

     Total force =     0.005202     Total SCF correction =     0.000002


     Computing stress (Cartesian axis) and pressure

          total   stress  (Ry/bohr**3)                   (kbar)     P=      -13.78
  -0.00008689   0.00000000   0.00000000          -12.78        0.00        0.00
   0.00000000  -0.00008761   0.00000000            0.00      -12.89        0.00
   0.00000000   0.00000000  -0.00010649            0.00        0.00      -15.67

     Volume is kept fixed: isostatic pressure set to zero
     Energy error            =      1.9E-03 Ry
     Gradient error          =      1.4E-03 Ry/Bohr
     Cell gradient error     =      1.9E+00 kbar

     number of scf cycles    =   3
     number of bfgs steps    =   2

     enthalpy           old  =    -156.4694458312 Ry
     enthalpy           new  =    -156.4713240980 Ry

     CASE: enthalpy          _new < enthalpy          _old

     new trust radius        =       0.0034858960 bohr
ibrav =      8
 celldm(1) =     12.86218413
 celldm(2) =      1.02530501
 celldm(3) =      0.69003345
Input lattice vectors:
     1.00122563     0.00000000     0.00000000
     0.00000000     1.02656165     0.00000000
     0.00000000     0.00000000     0.69087918
New lattice vectors in INITIAL alat:
     1.00122563     0.00000000     0.00000000
     0.00000000     1.02656165     0.00000000
     0.00000000     0.00000000     0.69087918
New lattice vectors in NEW alat (for information only):
     1.00000000     0.00000000     0.00000000
     0.00000000     1.02530501     0.00000000
     0.00000000     0.00000000     0.69003345
Discrepancy in bohr =     0.000000    0.000000    0.000000
     new conv_thr            =            1.0E-10 Ry

     new unit-cell volume =   1505.45365 a.u.^3 (   223.08522 Ang^3 )
     density =      2.48632 g/cm^3

CELL_PARAMETERS (alat= 12.84643918)
   1.001225628   0.000000000   0.000000000
   0.000000000   1.026561649   0.000000000
   0.000000000   0.000000000   0.690879175

ATOMIC_POSITIONS (crystal)
Ba               0.5000000000        0.5000000000        0.5001034297
Ba               0.0000000000        0.0000000000        0.9998965703
B                0.6104018475        0.2397562551        0.0000598354
B                0.3895981525        0.7602437449        0.0000598354
B                0.1104018475        0.2602437449        0.4999401646
B                0.8895981525        0.7397562551        0.4999401646
H                0.4370994454        0.2914986407        0.0002216081
H                0.5629005546        0.7085013593        0.0002216081
H                0.9370994454        0.2085013593        0.4997783919
H                0.0629005546        0.7914986407        0.4997783919
H                0.7200944533        0.3814054710       -0.0000055933
H                0.2799055467        0.6185945290       -0.0000055933
H                0.2200944533        0.1185945290        0.5000055933
H                0.7799055467        0.8814054710        0.5000055933
H                0.6389764619        0.1438205638        0.7841862219
H                0.3610235381        0.8561794362        0.7841862219
H                0.1389764619        0.3561794362        0.7158137781
H                0.8610235381        0.6438205638        0.7158137781
H                0.3608234753        0.8562239279        0.2158329530
H                0.6391765247        0.1437760721        0.2158329530
H                0.8608234753        0.6437760721        0.2841670470
H                0.1391765247        0.3562239279        0.2841670470



     Writing config-only to output data dir ./pwscf.save/ :
     XML data file
     NEW-OLD atomic charge density approx. for the potential

     total cpu time spent up to now is      692.3 secs

     Self-consistent Calculation

     iteration #  1     ecut=   100.00 Ry     beta= 0.70
     Davidson diagonalization with overlap
     ethr =  1.00E-06,  avg # of iterations =  2.0

     Threshold (ethr) on eigenvalues was too large:
     Diagonalizing with lowered threshold

     Davidson diagonalization with overlap
     ethr =  4.73E-08,  avg # of iterations =  2.0

     total cpu time spent up to now is      723.9 secs

     total energy              =    -156.47136027 Ry
     estimated scf accuracy    <       0.00003074 Ry

     iteration #  2     ecut=   100.00 Ry     beta= 0.70
     Davidson diagonalization with overlap
     ethr =  6.40E-08,  avg # of iterations =  2.0

     total cpu time spent up to now is      740.2 secs

     total energy              =    -156.47136896 Ry
     estimated scf accuracy    <       0.00000614 Ry

     iteration #  3     ecut=   100.00 Ry     beta= 0.70
     Davidson diagonalization with overlap
     ethr =  1.28E-08,  avg # of iterations =  2.0

     total cpu time spent up to now is      756.4 secs

     total energy              =    -156.47136978 Ry
     estimated scf accuracy    <       0.00000010 Ry

     iteration #  4     ecut=   100.00 Ry     beta= 0.70
     Davidson diagonalization with overlap
     ethr =  2.00E-10,  avg # of iterations =  3.0

     total cpu time spent up to now is      775.8 secs

     total energy              =    -156.47136983 Ry
     estimated scf accuracy    <       0.00000005 Ry

     iteration #  5     ecut=   100.00 Ry     beta= 0.70
     Davidson diagonalization with overlap
     ethr =  9.99E-11,  avg # of iterations =  2.0

     total cpu time spent up to now is      792.1 secs

     total energy              =    -156.47136984 Ry
     estimated scf accuracy    <          5.4E-10 Ry

     iteration #  6     ecut=   100.00 Ry     beta= 0.70
     Davidson diagonalization with overlap
     ethr =  1.13E-12,  avg # of iterations =  6.7

     total cpu time spent up to now is      821.3 secs

     total energy              =    -156.47136984 Ry
     estimated scf accuracy    <          4.7E-10 Ry

     iteration #  7     ecut=   100.00 Ry     beta= 0.70
     Davidson diagonalization with overlap
     ethr =  9.79E-13,  avg # of iterations =  2.0

     total cpu time spent up to now is      837.5 secs

     End of self-consistent calculation

          k = 0.0000 0.0000 0.0000 ( 25409 PWs)   bands (ev):

   -24.3421 -24.3352  -9.8030  -9.7301  -9.5692  -9.5374  -9.5031  -9.4516
    -6.2031  -5.3242  -4.7490  -4.5928  -1.8700  -1.0123  -0.9864  -0.6385
    -0.2631  -0.2464  -0.2196  -0.0869   0.0719   0.4265   0.4492   0.4822

          k = 0.0000 0.0000 0.3619 ( 25420 PWs)   bands (ev):

   -24.3357 -24.3308  -9.7217  -9.7187  -9.6966  -9.6732  -9.5543  -9.5370
    -5.7567  -5.0999  -4.8932  -4.7904  -1.5153  -1.2784  -0.8207  -0.7933
    -0.6583  -0.5530  -0.2161   0.0475   0.2484   0.2640   0.3424   0.4773

          k = 0.0000 0.0000-0.7237 ( 25388 PWs)   bands (ev):

   -24.3279 -24.3279  -9.9079  -9.9078  -9.5987  -9.5987  -9.5645  -9.5645
    -5.1068  -5.1064  -5.0159  -5.0154  -1.2763  -1.2758  -1.2611  -1.2597
    -0.2830  -0.2826  -0.2460  -0.2441   0.2957   0.2957   0.3134   0.3137

          k = 0.0000 0.2435 0.0000 ( 25408 PWs)   bands (ev):

   -24.3410 -24.3362  -9.7777  -9.7054  -9.6108  -9.5660  -9.4954  -9.4590
    -6.0247  -5.2466  -4.9983  -4.7071  -1.5439  -1.1572  -1.0867  -0.3516
    -0.3468  -0.3440  -0.0507   0.0628   0.1261   0.1519   0.3457   0.4225

          k = 0.0000 0.2435 0.3619 ( 25417 PWs)   bands (ev):

   -24.3350 -24.3315  -9.7571  -9.7224  -9.6604  -9.6509  -9.5609  -9.5544
    -5.6576  -5.1638  -4.9348  -4.8293  -1.3366  -1.3012  -1.0956  -0.5727
    -0.5384  -0.3631  -0.3399   0.0949   0.1788   0.2079   0.3190   0.3705

          k = 0.0000 0.2435-0.7237 ( 25440 PWs)   bands (ev):

   -24.3279 -24.3279  -9.9193  -9.9192  -9.5839  -9.5839  -9.5639  -9.5639
    -5.3418  -5.3418  -4.7726  -4.7726  -1.3825  -1.3818  -1.1058  -1.1051
    -0.2208  -0.2208  -0.2021  -0.2004   0.1454   0.1454   0.3055   0.3057

          k = 0.0000-0.4871 0.0000 ( 25422 PWs)   bands (ev):

   -24.3386 -24.3386  -9.7091  -9.7091  -9.6307  -9.6307  -9.4771  -9.4771
    -5.5731  -5.5731  -4.9622  -4.9622  -1.2692  -1.2692  -0.6540  -0.6540
    -0.4157  -0.4157   0.0373   0.0373   0.1808   0.1808   0.2926   0.2926

          k = 0.0000-0.4871 0.3619 ( 25468 PWs)   bands (ev):

   -24.3333 -24.3333  -9.7551  -9.7551  -9.6178  -9.6178  -9.5824  -9.5824
    -5.4095  -5.4095  -4.9050  -4.9050  -1.2810  -1.2810  -0.8871  -0.8871
    -0.3210  -0.3210  -0.0467  -0.0467   0.0890   0.0890   0.2974   0.2974

          k = 0.0000-0.4871-0.7237 ( 25512 PWs)   bands (ev):

   -24.3279 -24.3279  -9.9298  -9.9298  -9.5724  -9.5724  -9.5609  -9.5609
    -5.4539  -5.4539  -4.6526  -4.6526  -1.4655  -1.4655  -0.8877  -0.8877
    -0.2873  -0.2873  -0.1208  -0.1208  -0.0382  -0.0382   0.3403   0.3403

          k = 0.2497 0.0000 0.0000 ( 25427 PWs)   bands (ev):

   -24.3410 -24.3362  -9.7706  -9.7135  -9.6043  -9.5781  -9.4954  -9.4590
    -6.0333  -5.3658  -4.7788  -4.7279  -1.6911  -0.8951  -0.8880  -0.7504
    -0.2280  -0.1994  -0.1263  -0.0787   0.0292   0.0344   0.3943   0.4299

          k = 0.2497 0.0000 0.3619 ( 25407 PWs)   bands (ev):

   -24.3350 -24.3315  -9.7488  -9.7322  -9.6845  -9.6311  -9.5740  -9.5442
    -5.6217  -5.0958  -4.9183  -4.9064  -1.4811  -1.2603  -1.0980  -0.6342
    -0.6068  -0.3614  -0.1448  -0.0145   0.1072   0.2373   0.4088   0.4364

          k = 0.2497 0.0000-0.7237 ( 25450 PWs)   bands (ev):

   -24.3279 -24.3279  -9.9230  -9.9229  -9.5881  -9.5881  -9.5615  -9.5614
    -5.1593  -5.1590  -4.9379  -4.9376  -1.7125  -1.7121  -0.8643  -0.8640
    -0.2969  -0.2966  -0.0037  -0.0022   0.1205   0.1206   0.3494   0.3498

          k = 0.2497 0.2435 0.0000 ( 25416 PWs)   bands (ev):

   -24.3403 -24.3369  -9.7922  -9.6944  -9.6447  -9.5430  -9.4899  -9.4641
    -5.9012  -5.3291  -4.9847  -4.7694  -1.4294  -1.1228  -0.9043  -0.4685
    -0.3852  -0.3449  -0.0806   0.0717   0.0757   0.1603   0.2180   0.3566

          k = 0.2497 0.2435 0.3619 ( 25440 PWs)   bands (ev):

   -24.3345 -24.3320  -9.7500  -9.7177  -9.7139  -9.6168  -9.5805  -9.5395
    -5.5385  -5.1200  -5.0095  -4.9031  -1.4455  -1.2078  -1.1448  -0.6259
    -0.4616  -0.2997  -0.2037   0.0021   0.0902   0.1996   0.3378   0.4166

          k = 0.2497 0.2435-0.7237 ( 25446 PWs)   bands (ev):

   -24.3279 -24.3279  -9.9291  -9.9095  -9.6043  -9.5735  -9.5670  -9.5622
    -5.3472  -5.1966  -4.8950  -4.7407  -1.6895  -1.6192  -0.9256  -0.8441
    -0.3382  -0.3364  -0.0244   0.0195   0.1439   0.1750   0.3039   0.3302

          k = 0.2497-0.4871 0.0000 ( 25380 PWs)   bands (ev):

   -24.3386 -24.3386  -9.7700  -9.7700  -9.5711  -9.5711  -9.4768  -9.4768
    -5.5652  -5.5652  -4.9631  -4.9631  -1.1775  -1.1775  -0.6653  -0.6653
    -0.4470  -0.4470  -0.0150  -0.0150   0.2111   0.2111   0.2230   0.2230

          k = 0.2497-0.4871 0.3619 ( 25410 PWs)   bands (ev):

   -24.3332 -24.3332  -9.7459  -9.7459  -9.6646  -9.6646  -9.5506  -9.5506
    -5.3298  -5.3298  -4.9697  -4.9697  -1.3572  -1.3572  -0.8415  -0.8415
    -0.3242  -0.3242  -0.0266  -0.0266   0.0980   0.0980   0.3141   0.3141

          k = 0.2497-0.4871-0.7237 ( 25440 PWs)   bands (ev):

   -24.3279 -24.3279  -9.9165  -9.9165  -9.5902  -9.5902  -9.5665  -9.5665
    -5.3616  -5.3616  -4.7209  -4.7209  -1.5870  -1.5870  -0.9512  -0.9512
    -0.2340  -0.2340  -0.1074  -0.1074   0.1557   0.1557   0.3241   0.3241

          k =-0.4994 0.0000 0.0000 ( 25364 PWs)   bands (ev):

   -24.3386 -24.3386  -9.6935  -9.6935  -9.6529  -9.6529  -9.4771  -9.4771
    -5.6452  -5.6452  -4.8233  -4.8233  -1.2948  -1.2948  -0.5496  -0.5496
    -0.1959  -0.1959  -0.1902  -0.1902  -0.0855  -0.0855   0.2924   0.2924

          k =-0.4994 0.0000 0.3619 ( 25384 PWs)   bands (ev):

   -24.3332 -24.3332  -9.7574  -9.7574  -9.6347  -9.6347  -9.5720  -9.5720
    -5.3042  -5.3042  -4.9680  -4.9680  -1.4025  -1.4025  -0.8922  -0.8922
    -0.3342  -0.3342  -0.1533  -0.1533   0.2044   0.2044   0.3958   0.3958

          k =-0.4994 0.0000-0.7237 ( 25408 PWs)   bands (ev):

   -24.3279 -24.3279  -9.9370  -9.9370  -9.5801  -9.5801  -9.5568  -9.5568
    -5.1902  -5.1902  -4.8797  -4.8797  -1.9110  -1.9110  -0.6068  -0.6068
    -0.3077  -0.3077  -0.1366  -0.1366   0.2956   0.2956   0.3154   0.3154

          k =-0.4994 0.2435 0.0000 ( 25432 PWs)   bands (ev):

   -24.3386 -24.3386  -9.7688  -9.7688  -9.5756  -9.5756  -9.4768  -9.4768
    -5.6057  -5.6057  -4.8893  -4.8893  -1.2005  -1.2005  -0.5571  -0.5571
    -0.3827  -0.3827  -0.2253  -0.2253   0.1263   0.1263   0.2725   0.2725

          k =-0.4994 0.2435 0.3619 ( 25384 PWs)   bands (ev):

   -24.3332 -24.3332  -9.7474  -9.7474  -9.6686  -9.6686  -9.5495  -9.5495
    -5.2615  -5.2615  -5.0167  -5.0167  -1.4078  -1.4078  -0.8728  -0.8728
    -0.2989  -0.2989  -0.1048  -0.1048   0.1944   0.1944   0.3345   0.3345

          k =-0.4994 0.2435-0.7237 ( 25444 PWs)   bands (ev):

   -24.3279 -24.3279  -9.9204  -9.9204  -9.5924  -9.5924  -9.5658  -9.5658
    -5.2177  -5.2177  -4.8464  -4.8464  -1.8191  -1.8191  -0.8001  -0.8001
    -0.2620  -0.2620  -0.0751  -0.0751   0.2422   0.2422   0.3706   0.3706

          k =-0.4994-0.4871 0.0000 ( 25436 PWs)   bands (ev):

   -24.3386 -24.3386  -9.8063  -9.8063  -9.5360  -9.5360  -9.4765  -9.4765
    -5.5586  -5.5586  -4.9620  -4.9620  -1.0648  -1.0648  -0.6981  -0.6981
    -0.4755  -0.4755  -0.0391  -0.0391   0.1249   0.1249   0.2388   0.2388

          k =-0.4994-0.4871 0.3619 ( 25388 PWs)   bands (ev):

   -24.3332 -24.3332  -9.7280  -9.7280  -9.7032  -9.7032  -9.5356  -9.5356
    -5.1870  -5.1870  -5.0970  -5.0970  -1.3940  -1.3940  -0.9190  -0.9190
    -0.1502  -0.1502  -0.0264  -0.0264   0.1149   0.1149   0.2451   0.2451

          k =-0.4994-0.4871-0.7237 ( 25416 PWs)   bands (ev):

   -24.3279 -24.3279  -9.9016  -9.9016  -9.6105  -9.6105  -9.5711  -9.5711
    -5.2413  -5.2413  -4.8167  -4.8167  -1.6750  -1.6750  -1.0711  -1.0711
    -0.0545  -0.0545  -0.0156  -0.0156   0.1309   0.1309   0.3447   0.3447

     highest occupied level (ev):     0.4822

!    total energy              =    -156.47136984 Ry
     estimated scf accuracy    <          2.2E-11 Ry

     The total energy is the sum of the following terms:
     one-electron contribution =     -25.57922255 Ry
     hartree contribution      =      26.55042739 Ry
     xc contribution           =     -49.02205967 Ry
     ewald contribution        =    -108.42051500 Ry

     convergence has been achieved in   7 iterations

     Forces acting on atoms (cartesian axes, Ry/au):

     atom    1 type  2   force =     0.00000000    0.00000000    0.00000384
     atom    2 type  2   force =     0.00000000    0.00000000   -0.00000384
     atom    3 type  1   force =     0.00042687    0.00088832   -0.00000791
     atom    4 type  1   force =    -0.00042687   -0.00088832   -0.00000791
     atom    5 type  1   force =     0.00042687   -0.00088832    0.00000791
     atom    6 type  1   force =    -0.00042687    0.00088832    0.00000791
     atom    7 type  3   force =     0.00042772    0.00047743   -0.00001452
     atom    8 type  3   force =    -0.00042772   -0.00047743   -0.00001452
     atom    9 type  3   force =     0.00042772   -0.00047743    0.00001452
     atom   10 type  3   force =    -0.00042772    0.00047743    0.00001452
     atom   11 type  3   force =     0.00000441    0.00112846    0.00000147
     atom   12 type  3   force =    -0.00000441   -0.00112846    0.00000147
     atom   13 type  3   force =     0.00000441   -0.00112846   -0.00000147
     atom   14 type  3   force =    -0.00000441    0.00112846   -0.00000147
     atom   15 type  3   force =     0.00054125    0.00049040   -0.00034831
     atom   16 type  3   force =    -0.00054125   -0.00049040   -0.00034831
     atom   17 type  3   force =     0.00054125   -0.00049040    0.00034831
     atom   18 type  3   force =    -0.00054125    0.00049040    0.00034831
     atom   19 type  3   force =    -0.00050992   -0.00049901    0.00034091
     atom   20 type  3   force =     0.00050992    0.00049901    0.00034091
     atom   21 type  3   force =    -0.00050992    0.00049901   -0.00034091
     atom   22 type  3   force =     0.00050992   -0.00049901   -0.00034091

     Total force =     0.003968     Total SCF correction =     0.000002


     Computing stress (Cartesian axis) and pressure

          total   stress  (Ry/bohr**3)                   (kbar)     P=      -12.52
  -0.00007911   0.00000000   0.00000000          -11.64        0.00        0.00
   0.00000000  -0.00008004   0.00000000            0.00      -11.77        0.00
   0.00000000   0.00000000  -0.00009609            0.00        0.00      -14.14

     Volume is kept fixed: isostatic pressure set to zero
     Energy error            =      4.6E-05 Ry
     Gradient error          =      1.1E-03 Ry/Bohr
     Cell gradient error     =      1.6E+00 kbar

     number of scf cycles    =   4
     number of bfgs steps    =   3

     enthalpy           old  =    -156.4713240980 Ry
     enthalpy           new  =    -156.4713698401 Ry

     CASE: enthalpy          _new < enthalpy          _old

     new trust radius        =       0.0048335095 bohr
ibrav =      8
 celldm(1) =     12.86650587
 celldm(2) =      1.02525422
 celldm(3) =      0.68937250
Input lattice vectors:
     1.00156204     0.00000000     0.00000000
     0.00000000     1.02685571     0.00000000
     0.00000000     0.00000000     0.69044933
New lattice vectors in INITIAL alat:
     1.00156204     0.00000000     0.00000000
     0.00000000     1.02685571     0.00000000
     0.00000000     0.00000000     0.69044933
New lattice vectors in NEW alat (for information only):
     1.00000000     0.00000000     0.00000000
     0.00000000     1.02525422     0.00000000
     0.00000000     0.00000000     0.68937250
Discrepancy in bohr =     0.000000    0.000000    0.000000
     new conv_thr            =            4.6E-12 Ry

     new unit-cell volume =   1505.45365 a.u.^3 (   223.08522 Ang^3 )
     density =      2.48632 g/cm^3

CELL_PARAMETERS (alat= 12.84643918)
   1.001562043   0.000000000   0.000000000
   0.000000000   1.026855713   0.000000000
   0.000000000   0.000000000   0.690449333

ATOMIC_POSITIONS (crystal)
Ba               0.5000000000        0.5000000000        0.5001044623
Ba               0.0000000000        0.0000000000        0.9998955377
B                0.6104711658        0.2399137358        0.0000579069
B                0.3895288342        0.7600862642        0.0000579069
B                0.1104711658        0.2600862642        0.4999420931
B                0.8895288342        0.7399137358        0.4999420931
H                0.4372788599        0.2915428956        0.0002181663
H                0.5627211401        0.7084571044        0.0002181663
H                0.9372788599        0.2084571044        0.4997818337
H                0.0627211401        0.7915428956        0.4997818337
H                0.7200180488        0.3814856213       -0.0000051618
H                0.2799819512        0.6185143787       -0.0000051618
H                0.2200180488        0.1185143787        0.5000051618
H                0.7799819512        0.8814856213        0.5000051618
H                0.6390468444        0.1439555708        0.7842549465
H                0.3609531556        0.8560444292        0.7842549465
H                0.1390468444        0.3560444292        0.7157450535
H                0.8609531556        0.6439555708        0.7157450535
H                0.3607584619        0.8560874041        0.2157624312
H                0.6392415381        0.1439125959        0.2157624312
H                0.8607584619        0.6439125959        0.2842375688
H                0.1392415381        0.3560874041        0.2842375688



     Writing config-only to output data dir ./pwscf.save/ :
     XML data file
     NEW-OLD atomic charge density approx. for the potential

     total cpu time spent up to now is      869.6 secs

     Self-consistent Calculation

     iteration #  1     ecut=   100.00 Ry     beta= 0.70
     Davidson diagonalization with overlap
     ethr =  1.00E-06,  avg # of iterations =  2.0

     Threshold (ethr) on eigenvalues was too large:
     Diagonalizing with lowered threshold

     Davidson diagonalization with overlap
     ethr =  1.54E-08,  avg # of iterations =  3.0

     total cpu time spent up to now is      902.9 secs

     total energy              =    -156.47140456 Ry
     estimated scf accuracy    <       0.00001012 Ry

     iteration #  2     ecut=   100.00 Ry     beta= 0.70
     Davidson diagonalization with overlap
     ethr =  2.11E-08,  avg # of iterations =  2.0

     total cpu time spent up to now is      919.2 secs

     total energy              =    -156.47140690 Ry
     estimated scf accuracy    <       0.00000115 Ry

     iteration #  3     ecut=   100.00 Ry     beta= 0.70
     Davidson diagonalization with overlap
     ethr =  2.39E-09,  avg # of iterations =  2.0

     total cpu time spent up to now is      935.4 secs

     total energy              =    -156.47140707 Ry
     estimated scf accuracy    <       0.00000003 Ry

     iteration #  4     ecut=   100.00 Ry     beta= 0.70
     Davidson diagonalization with overlap
     ethr =  5.79E-11,  avg # of iterations =  4.8

     total cpu time spent up to now is      955.3 secs

     total energy              =    -156.47140708 Ry
     estimated scf accuracy    <          5.8E-09 Ry

     iteration #  5     ecut=   100.00 Ry     beta= 0.70
     Davidson diagonalization with overlap
     ethr =  1.22E-11,  avg # of iterations =  4.1

     total cpu time spent up to now is      974.3 secs

     total energy              =    -156.47140708 Ry
     estimated scf accuracy    <          1.2E-10 Ry

     iteration #  6     ecut=   100.00 Ry     beta= 0.70
     Davidson diagonalization with overlap
     ethr =  2.50E-13,  avg # of iterations =  6.5

     total cpu time spent up to now is     1003.1 secs

     End of self-consistent calculation

          k = 0.0000 0.0000 0.0000 ( 25409 PWs)   bands (ev):

   -24.3419 -24.3350  -9.8036  -9.7305  -9.5695  -9.5375  -9.5029  -9.4516
    -6.2058  -5.3282  -4.7528  -4.5972  -1.8730  -1.0147  -0.9883  -0.6438
    -0.2626  -0.2514  -0.2166  -0.0867   0.0743   0.4223   0.4455   0.4752

          k = 0.0000 0.0000 0.3621 ( 25420 PWs)   bands (ev):

   -24.3355 -24.3306  -9.7220  -9.7198  -9.6979  -9.6732  -9.5544  -9.5370
    -5.7582  -5.1024  -4.8977  -4.7954  -1.5165  -1.2801  -0.8230  -0.7956
    -0.6588  -0.5524  -0.2181   0.0454   0.2454   0.2586   0.3400   0.4715

          k = 0.0000 0.0000-0.7242 ( 25388 PWs)   bands (ev):

   -24.3276 -24.3276  -9.9101  -9.9100  -9.5984  -9.5983  -9.5645  -9.5645
    -5.1077  -5.1073  -5.0215  -5.0210  -1.2756  -1.2751  -1.2629  -1.2615
    -0.2855  -0.2851  -0.2481  -0.2462   0.2897   0.2897   0.3102   0.3104

          k = 0.0000 0.2435 0.0000 ( 25408 PWs)   bands (ev):

   -24.3409 -24.3360  -9.7784  -9.7058  -9.6111  -9.5661  -9.4952  -9.4589
    -6.0276  -5.2513  -5.0011  -4.7113  -1.5478  -1.1595  -1.0889  -0.3502
    -0.3492  -0.3443  -0.0560   0.0636   0.1200   0.1533   0.3416   0.4186

          k = 0.0000 0.2435 0.3621 ( 25417 PWs)   bands (ev):

   -24.3348 -24.3313  -9.7578  -9.7234  -9.6611  -9.6511  -9.5611  -9.5544
    -5.6594  -5.1666  -4.9388  -4.8340  -1.3381  -1.3027  -1.0975  -0.5726
    -0.5396  -0.3664  -0.3409   0.0924   0.1753   0.2022   0.3166   0.3662

          k = 0.0000 0.2435-0.7242 ( 25440 PWs)   bands (ev):

   -24.3276 -24.3276  -9.9214  -9.9213  -9.5837  -9.5837  -9.5639  -9.5639
    -5.3449  -5.3449  -4.7758  -4.7758  -1.3840  -1.3834  -1.1053  -1.1046
[...]
        18        H      tau(  18) = (   0.8603649   0.6701517   0.4901518  )
        19        H      tau(  19) = (   0.3519629   0.8677037   0.1495812  )
        20        H      tau(  20) = (   0.6648611   0.1575347   0.1495812  )
        21        H      tau(  21) = (   0.8603750   0.6701538   0.1909982  )
        22        H      tau(  22) = (   0.1564491   0.3550845   0.1909982  )

     number of k points=    27
                       cart. coord. in units 2pi/alat
        k(    1) = (   0.0000000   0.0000000   0.0000000), wk =   0.0312500
        k(    2) = (   0.0000000   0.0000000   0.3670216), wk =   0.0625000
        k(    3) = (   0.0000000   0.0000000  -0.7340431), wk =   0.0312500
        k(    4) = (   0.0000000   0.2438457   0.0000000), wk =   0.0625000
        k(    5) = (   0.0000000   0.2438457   0.3670216), wk =   0.1250000
        k(    6) = (   0.0000000   0.2438457  -0.7340431), wk =   0.0625000
        k(    7) = (   0.0000000  -0.4876915   0.0000000), wk =   0.0312500
        k(    8) = (   0.0000000  -0.4876915   0.3670216), wk =   0.0625000
        k(    9) = (   0.0000000  -0.4876915  -0.7340431), wk =   0.0312500
        k(   10) = (   0.2458636   0.0000000   0.0000000), wk =   0.0625000
        k(   11) = (   0.2458636   0.0000000   0.3670216), wk =   0.1250000
        k(   12) = (   0.2458636   0.0000000  -0.7340431), wk =   0.0625000
        k(   13) = (   0.2458636   0.2438457   0.0000000), wk =   0.1250000
        k(   14) = (   0.2458636   0.2438457   0.3670216), wk =   0.2500000
        k(   15) = (   0.2458636   0.2438457  -0.7340431), wk =   0.1250000
        k(   16) = (   0.2458636  -0.4876915   0.0000000), wk =   0.0625000
        k(   17) = (   0.2458636  -0.4876915   0.3670216), wk =   0.1250000
        k(   18) = (   0.2458636  -0.4876915  -0.7340431), wk =   0.0625000
        k(   19) = (  -0.4917271   0.0000000   0.0000000), wk =   0.0312500
        k(   20) = (  -0.4917271   0.0000000   0.3670216), wk =   0.0625000
        k(   21) = (  -0.4917271   0.0000000  -0.7340431), wk =   0.0312500
        k(   22) = (  -0.4917271   0.2438457   0.0000000), wk =   0.0625000
        k(   23) = (  -0.4917271   0.2438457   0.3670216), wk =   0.1250000
        k(   24) = (  -0.4917271   0.2438457  -0.7340431), wk =   0.0625000
        k(   25) = (  -0.4917271  -0.4876915   0.0000000), wk =   0.0312500
        k(   26) = (  -0.4917271  -0.4876915   0.3670216), wk =   0.0625000
        k(   27) = (  -0.4917271  -0.4876915  -0.7340431), wk =   0.0312500

     Dense  grid:   575437 G-vectors     FFT dimensions: ( 120, 120,  80)

     Smooth grid:   203443 G-vectors     FFT dimensions: (  90,  90,  60)

     Estimated max dynamical RAM per process >      94.35 MB

     Estimated total dynamical RAM >       2.21 GB

     Initial potential from superposition of free atoms

     starting charge      47.9682, renormalised to      48.0000
     Starting wfcs are   42 randomized atomic wfcs

     total cpu time spent up to now is    10081.7 secs

     Self-consistent Calculation

     iteration #  1     ecut=   100.00 Ry     beta= 0.70
     Davidson diagonalization with overlap
     ethr =  1.00E-06,  avg # of iterations = 11.0

     total cpu time spent up to now is    10135.3 secs

     total energy              =    -155.83156706 Ry
     estimated scf accuracy    <       2.27461820 Ry

     iteration #  2     ecut=   100.00 Ry     beta= 0.70
     Davidson diagonalization with overlap
     ethr =  4.74E-03,  avg # of iterations =  2.0

     total cpu time spent up to now is    10152.3 secs

     total energy              =    -156.39573538 Ry
     estimated scf accuracy    <       0.47220062 Ry

     iteration #  3     ecut=   100.00 Ry     beta= 0.70
     Davidson diagonalization with overlap
     ethr =  9.84E-04,  avg # of iterations =  2.0

     total cpu time spent up to now is    10169.4 secs

     total energy              =    -156.47004002 Ry
     estimated scf accuracy    <       0.00568932 Ry

     iteration #  4     ecut=   100.00 Ry     beta= 0.70
     Davidson diagonalization with overlap
     ethr =  1.19E-05,  avg # of iterations =  3.4

     total cpu time spent up to now is    10190.7 secs

     total energy              =    -156.47215528 Ry
     estimated scf accuracy    <       0.00228169 Ry

     iteration #  5     ecut=   100.00 Ry     beta= 0.70
     Davidson diagonalization with overlap
     ethr =  4.75E-06,  avg # of iterations =  3.1

     total cpu time spent up to now is    10208.6 secs

     total energy              =    -156.47280040 Ry
     estimated scf accuracy    <       0.00005196 Ry

     iteration #  6     ecut=   100.00 Ry     beta= 0.70
     Davidson diagonalization with overlap
     ethr =  1.08E-07,  avg # of iterations =  6.2

     total cpu time spent up to now is    10237.1 secs

     total energy              =    -156.47289978 Ry
     estimated scf accuracy    <       0.00001903 Ry

     iteration #  7     ecut=   100.00 Ry     beta= 0.70
     Davidson diagonalization with overlap
     ethr =  3.97E-08,  avg # of iterations =  2.3

     total cpu time spent up to now is    10254.5 secs

     total energy              =    -156.47290363 Ry
     estimated scf accuracy    <       0.00000021 Ry

     iteration #  8     ecut=   100.00 Ry     beta= 0.70
     Davidson diagonalization with overlap
     ethr =  4.43E-10,  avg # of iterations =  6.6

     total cpu time spent up to now is    10284.9 secs

     total energy              =    -156.47290411 Ry
     estimated scf accuracy    <       0.00000007 Ry

     iteration #  9     ecut=   100.00 Ry     beta= 0.70
     Davidson diagonalization with overlap
     ethr =  1.48E-10,  avg # of iterations =  2.1

     total cpu time spent up to now is    10302.0 secs

     total energy              =    -156.47290412 Ry
     estimated scf accuracy    <          7.7E-09 Ry

     iteration # 10     ecut=   100.00 Ry     beta= 0.70
     Davidson diagonalization with overlap
     ethr =  1.59E-11,  avg # of iterations =  4.4

     total cpu time spent up to now is    10322.4 secs

     total energy              =    -156.47290412 Ry
     estimated scf accuracy    <          7.2E-11 Ry

     iteration # 11     ecut=   100.00 Ry     beta= 0.70
     Davidson diagonalization with overlap
     ethr =  1.50E-13,  avg # of iterations = 10.0

     total cpu time spent up to now is    10368.4 secs

     total energy              =    -156.47290412 Ry
     estimated scf accuracy    <          6.4E-11 Ry

     iteration # 12     ecut=   100.00 Ry     beta= 0.70
     Davidson diagonalization with overlap
     ethr =  1.34E-13,  avg # of iterations =  2.0

     total cpu time spent up to now is    10386.7 secs

     total energy              =    -156.47290412 Ry
     estimated scf accuracy    <          2.9E-12 Ry

     iteration # 13     ecut=   100.00 Ry     beta= 0.70
     Davidson diagonalization with overlap
     ethr =  1.00E-13,  avg # of iterations =  1.0

     total cpu time spent up to now is    10400.1 secs

     End of self-consistent calculation

          k = 0.0000 0.0000 0.0000 ( 25415 PWs)   bands (ev):

   -24.2696 -24.2626  -9.7769  -9.7116  -9.5261  -9.4890  -9.4450  -9.3912
    -6.2458  -5.3613  -4.7662  -4.6621  -1.9458  -1.0138  -1.0078  -0.6482
    -0.4362  -0.3523  -0.2353  -0.1925   0.0796   0.3968   0.4000   0.4380

          k = 0.0000 0.0000 0.3670 ( 25414 PWs)   bands (ev):

   -24.2620 -24.2570  -9.6992  -9.6858  -9.6783  -9.6413  -9.5075  -9.4853
    -5.7510  -5.0875  -4.9391  -4.8710  -1.5494  -1.3819  -1.0291  -0.7988
    -0.6515  -0.5713  -0.2311   0.0153   0.1961   0.2184   0.2641   0.3946

          k = 0.0000 0.0000-0.7340 ( 25476 PWs)   bands (ev):

   -24.2529 -24.2529  -9.9192  -9.9192  -9.5466  -9.5466  -9.5170  -9.5170
    -5.1016  -5.1016  -5.0541  -5.0541  -1.4259  -1.4258  -1.3121  -1.3120
    -0.2759  -0.2759  -0.2563  -0.2561   0.1904   0.1905   0.2709   0.2710

          k = 0.0000 0.2438 0.0000 ( 25388 PWs)   bands (ev):

   -24.2686 -24.2636  -9.7506  -9.6852  -9.5682  -9.5212  -9.4370  -9.3990
    -6.0691  -5.3160  -4.9871  -4.7612  -1.6471  -1.1965  -1.0840  -0.3947
    -0.3712  -0.3611  -0.1975  -0.0446   0.0852   0.1004   0.3158   0.3735

          k = 0.0000 0.2438 0.3670 ( 25456 PWs)   bands (ev):

   -24.2613 -24.2578  -9.7328  -9.7019  -9.6288  -9.6181  -9.5158  -9.5046
    -5.6532  -5.1593  -4.9762  -4.9005  -1.4023  -1.3932  -1.2050  -0.6168
    -0.5917  -0.3817  -0.3607   0.0425   0.1374   0.1712   0.2584   0.2934

          k = 0.0000 0.2438-0.7340 ( 25426 PWs)   bands (ev):

   -24.2529 -24.2529  -9.9295  -9.9295  -9.5321  -9.5321  -9.5169  -9.5169
    -5.3580  -5.3580  -4.7879  -4.7879  -1.5620  -1.5620  -1.1352  -1.1351
    -0.2219  -0.2217  -0.2054  -0.2054   0.1036   0.1037   0.2139   0.2139

          k = 0.0000-0.4877 0.0000 ( 25378 PWs)   bands (ev):

   -24.2661 -24.2661  -9.6824  -9.6824  -9.5908  -9.5908  -9.4178  -9.4178
    -5.6296  -5.6296  -4.9795  -4.9795  -1.3557  -1.3557  -0.6710  -0.6710
    -0.4251  -0.4251  -0.0174  -0.0174   0.0753   0.0753   0.2278   0.2278

          k = 0.0000-0.4877 0.3670 ( 25418 PWs)   bands (ev):

   -24.2595 -24.2595  -9.7328  -9.7328  -9.5848  -9.5848  -9.5357  -9.5357
    -5.4083  -5.4083  -4.9559  -4.9559  -1.3917  -1.3917  -0.9330  -0.9330
    -0.3808  -0.3808  -0.0422  -0.0422   0.0141   0.0141   0.2471   0.2471

          k = 0.0000-0.4877-0.7340 ( 25460 PWs)   bands (ev):

   -24.2529 -24.2529  -9.9391  -9.9391  -9.5201  -9.5201  -9.5148  -9.5148
    -5.4714  -5.4714  -4.6643  -4.6643  -1.6547  -1.6547  -0.9321  -0.9321
    -0.2482  -0.2482  -0.1195  -0.1195  -0.1172  -0.1172   0.2702   0.2702

          k = 0.2459 0.0000 0.0000 ( 25358 PWs)   bands (ev):

   -24.2686 -24.2636  -9.7435  -9.6913  -9.5624  -9.5318  -9.4370  -9.3990
    -6.0798  -5.4073  -4.8022  -4.7906  -1.7541  -0.9460  -0.9101  -0.7770
    -0.3007  -0.2393  -0.2196  -0.1996   0.0134   0.0363   0.3356   0.3758

          k = 0.2459 0.0000 0.3670 ( 25412 PWs)   bands (ev):

   -24.2613 -24.2578  -9.7265  -9.7077  -9.6522  -9.5992  -9.5275  -9.4948
    -5.6254  -5.0863  -4.9846  -4.9631  -1.5254  -1.3239  -1.2133  -0.6490
    -0.6164  -0.4114  -0.2360  -0.0591   0.0682   0.2076   0.3211   0.3529

          k = 0.2459 0.0000-0.7340 ( 25432 PWs)   bands (ev):

   -24.2529 -24.2529  -9.9324  -9.9324  -9.5370  -9.5370  -9.5129  -9.5129
    -5.2249  -5.2249  -4.9088  -4.9088  -1.7971  -1.7971  -0.9457  -0.9456
    -0.2764  -0.2764  -0.0817  -0.0816   0.0555   0.0556   0.2760   0.2760

          k = 0.2459 0.2438 0.0000 ( 25407 PWs)   bands (ev):

   -24.2678 -24.2643  -9.7670  -9.6692  -9.6030  -9.4971  -9.4313  -9.4044
    -5.9572  -5.4072  -4.9825  -4.7982  -1.5252  -1.1742  -0.9382  -0.5013
    -0.4186  -0.3651  -0.1478  -0.0240  -0.0204   0.0965   0.2105   0.3191

          k = 0.2459 0.2438 0.3670 ( 25410 PWs)   bands (ev):

   -24.2607 -24.2583  -9.7268  -9.6977  -9.6788  -9.5839  -9.5345  -9.4896
    -5.5451  -5.1294  -5.0508  -4.9574  -1.5003  -1.3159  -1.2153  -0.6838
    -0.4976  -0.3568  -0.2366  -0.0123   0.0287   0.1546   0.2768   0.3469

          k = 0.2459 0.2438-0.7340 ( 25428 PWs)   bands (ev):

   -24.2529 -24.2529  -9.9383  -9.9205  -9.5509  -9.5247  -9.5161  -9.5150
    -5.3879  -5.2150  -4.9144  -4.7356  -1.8110  -1.6881  -1.0784  -0.9160
    -0.3284  -0.3002  -0.0563   0.0195   0.0411   0.1128   0.2332   0.2657

          k = 0.2459-0.4877 0.0000 ( 25438 PWs)   bands (ev):

   -24.2661 -24.2661  -9.7432  -9.7432  -9.5286  -9.5286  -9.4176  -9.4176
    -5.6483  -5.6483  -4.9545  -4.9545  -1.2811  -1.2811  -0.7013  -0.7013
    -0.4602  -0.4602  -0.0657  -0.0657   0.1121   0.1121   0.1990   0.1990

          k = 0.2459-0.4877 0.3670 ( 25426 PWs)   bands (ev):

   -24.2595 -24.2595  -9.7214  -9.7214  -9.6330  -9.6330  -9.5030  -9.5030
    -5.3449  -5.3449  -5.0078  -5.0078  -1.4381  -1.4381  -0.9321  -0.9321
    -0.3742  -0.3742  -0.0702  -0.0702   0.0979   0.0979   0.2471   0.2471

          k = 0.2459-0.4877-0.7340 ( 25468 PWs)   bands (ev):

   -24.2529 -24.2529  -9.9269  -9.9269  -9.5367  -9.5367  -9.5196  -9.5196
    -5.3822  -5.3822  -4.7367  -4.7367  -1.7067  -1.7067  -1.0625  -1.0625
    -0.2358  -0.2358  -0.0969  -0.0969   0.1077   0.1077   0.2566   0.2566

          k =-0.4917 0.0000 0.0000 ( 25422 PWs)   bands (ev):

   -24.2661 -24.2661  -9.6687  -9.6687  -9.6083  -9.6083  -9.4179  -9.4179
    -5.6955  -5.6955  -4.8635  -4.8635  -1.3539  -1.3539  -0.5637  -0.5637
    -0.2557  -0.2557  -0.2425  -0.2425  -0.1334  -0.1334   0.2209   0.2209

          k =-0.4917 0.0000 0.3670 ( 25424 PWs)   bands (ev):

   -24.2595 -24.2595  -9.7339  -9.7339  -9.5989  -9.5989  -9.5265  -9.5265
    -5.3236  -5.3236  -5.0117  -5.0117  -1.4575  -1.4575  -0.9445  -0.9445
    -0.3574  -0.3574  -0.2072  -0.2072   0.1374   0.1374   0.3078   0.3078

          k =-0.4917 0.0000-0.7340 ( 25400 PWs)   bands (ev):

   -24.2529 -24.2529  -9.9449  -9.9449  -9.5303  -9.5303  -9.5066  -9.5066
    -5.2810  -5.2810  -4.8293  -4.8293  -1.9805  -1.9805  -0.6927  -0.6927
    -0.2692  -0.2692  -0.2095  -0.2095   0.2076   0.2076   0.2192   0.2192

          k =-0.4917 0.2438 0.0000 ( 25408 PWs)   bands (ev):

   -24.2661 -24.2661  -9.7414  -9.7414  -9.5324  -9.5324  -9.4177  -9.4177
    -5.6815  -5.6815  -4.8962  -4.8962  -1.2858  -1.2858  -0.6157  -0.6157
    -0.4084  -0.4084  -0.2465  -0.2465   0.0472   0.0472   0.2321   0.2321

          k =-0.4917 0.2438 0.3670 ( 25440 PWs)   bands (ev):

   -24.2595 -24.2595  -9.7219  -9.7219  -9.6370  -9.6370  -9.5015  -9.5015
    -5.2922  -5.2922  -5.0458  -5.0458  -1.4659  -1.4659  -0.9605  -0.9605
    -0.3038  -0.3038  -0.1794  -0.1794   0.1572   0.1572   0.2640   0.2640

          k =-0.4917 0.2438-0.7340 ( 25456 PWs)   bands (ev):

   -24.2529 -24.2529  -9.9300  -9.9300  -9.5402  -9.5402  -9.5169  -9.5169
    -5.2727  -5.2727  -4.8335  -4.8335  -1.8924  -1.8924  -0.9157  -0.9157
    -0.2273  -0.2273  -0.1427  -0.1427   0.1656   0.1656   0.3154   0.3154

          k =-0.4917-0.4877 0.0000 ( 25428 PWs)   bands (ev):

   -24.2661 -24.2661  -9.7800  -9.7800  -9.4904  -9.4904  -9.4174  -9.4174
    -5.6665  -5.6665  -4.9294  -4.9294  -1.1931  -1.1931  -0.7475  -0.7475
    -0.4913  -0.4913  -0.0981  -0.0981   0.1450   0.1450   0.1561   0.1561

          k =-0.4917-0.4877 0.3670 ( 25416 PWs)   bands (ev):

   -24.2595 -24.2595  -9.6911  -9.6911  -9.6846  -9.6846  -9.4859  -9.4859
    -5.2494  -5.2494  -5.0914  -5.0914  -1.4626  -1.4626  -1.0078  -1.0078
    -0.2551  -0.2551   0.0065   0.0065   0.0253   0.0253   0.2381   0.2381

          k =-0.4917-0.4877-0.7340 ( 25464 PWs)   bands (ev):

   -24.2529 -24.2529  -9.9136  -9.9136  -9.5556  -9.5556  -9.5232  -9.5232
    -5.2648  -5.2648  -4.8372  -4.8372  -1.7506  -1.7506  -1.1899  -1.1899
    -0.1387  -0.1387   0.0347   0.0347   0.0558   0.0558   0.3152   0.3152

     highest occupied level (ev):     0.4380

!    total energy              =    -156.47290412 Ry
     estimated scf accuracy    <          6.8E-13 Ry

     The total energy is the sum of the following terms:
     one-electron contribution =     -27.51974281 Ry
     hartree contribution      =      27.52460527 Ry
     xc contribution           =     -49.07544292 Ry
     ewald contribution        =    -107.40232366 Ry

     convergence has been achieved in  13 iterations

     Forces acting on atoms (cartesian axes, Ry/au):

     atom    1 type  2   force =     0.00000000    0.00000000   -0.00000402
     atom    2 type  2   force =     0.00000000    0.00000000    0.00000402
     atom    3 type  1   force =    -0.00000175    0.00000113   -0.00000300
     atom    4 type  1   force =     0.00000175   -0.00000113   -0.00000300
     atom    5 type  1   force =    -0.00000175   -0.00000113    0.00000300
     atom    6 type  1   force =     0.00000175    0.00000113    0.00000300
     atom    7 type  3   force =     0.00000253   -0.00000041    0.00000838
     atom    8 type  3   force =    -0.00000253    0.00000041    0.00000838
     atom    9 type  3   force =     0.00000253    0.00000041   -0.00000838
     atom   10 type  3   force =    -0.00000253   -0.00000041   -0.00000838
     atom   11 type  3   force =    -0.00000136   -0.00000264    0.00000004
     atom   12 type  3   force =     0.00000136    0.00000264    0.00000004
     atom   13 type  3   force =    -0.00000136    0.00000264   -0.00000004
     atom   14 type  3   force =     0.00000136   -0.00000264   -0.00000004
     atom   15 type  3   force =     0.00000333   -0.00000100   -0.00000060
     atom   16 type  3   force =    -0.00000333    0.00000100   -0.00000060
     atom   17 type  3   force =     0.00000333    0.00000100    0.00000060
     atom   18 type  3   force =    -0.00000333   -0.00000100    0.00000060
     atom   19 type  3   force =     0.00000204   -0.00000274   -0.00000323
     atom   20 type  3   force =    -0.00000204    0.00000274   -0.00000323
     atom   21 type  3   force =     0.00000204    0.00000274    0.00000323
     atom   22 type  3   force =    -0.00000204   -0.00000274    0.00000323

     Total force =     0.000024     Total SCF correction =     0.000000


     Computing stress (Cartesian axis) and pressure

          total   stress  (Ry/bohr**3)                   (kbar)     P=       -6.37
  -0.00004329   0.00000000   0.00000000           -6.37        0.00        0.00
   0.00000000  -0.00004332   0.00000000            0.00       -6.37        0.00
   0.00000000   0.00000000  -0.00004333            0.00        0.00       -6.37


     Writing all to output data dir ./pwscf.save/ :
     XML data file, charge density, pseudopotentials, collected wavefunctions

     init_run     :     20.39s CPU     22.13s WALL (       2 calls)
     electrons    :   8414.89s CPU   8480.11s WALL (      60 calls)
     update_pot   :     14.36s CPU     15.79s WALL (      58 calls)
     forces       :    202.53s CPU    204.64s WALL (      60 calls)
     stress       :   1687.74s CPU   1691.76s WALL (      60 calls)

     Called by init_run:
     wfcinit      :     16.39s CPU     16.50s WALL (       2 calls)
     potinit      :      0.74s CPU      1.25s WALL (       2 calls)
     hinit0       :      1.41s CPU      2.47s WALL (       2 calls)

     Called by electrons:
     c_bands      :   7423.05s CPU   7471.54s WALL (     454 calls)
     sum_band     :    848.47s CPU    858.11s WALL (     454 calls)
     v_of_rho     :     62.01s CPU     64.68s WALL (     468 calls)
     newd         :     84.36s CPU     85.80s WALL (     468 calls)
     mix_rho      :      6.88s CPU      7.39s WALL (     454 calls)

     Called by c_bands:
     init_us_2    :    174.93s CPU    177.12s WALL (   27810 calls)
     cegterg      :   6620.09s CPU   6665.74s WALL (   12258 calls)

     Called by *egterg:
     cdiaghg      :     87.75s CPU     88.37s WALL (   49525 calls)
     h_psi        :   4701.49s CPU   4738.33s WALL (   52387 calls)
     s_psi        :    852.28s CPU    855.93s WALL (   52387 calls)
     g_psi        :     14.70s CPU     14.78s WALL (   40075 calls)

     Called by h_psi:
     h_psi:calbec :    754.11s CPU    758.00s WALL (   52387 calls)
     vloc_psi     :   3083.26s CPU   3112.96s WALL (   52387 calls)
     add_vuspsi   :    850.75s CPU    854.27s WALL (   52387 calls)

     General routines
     calbec       :   1382.96s CPU   1389.14s WALL (   72745 calls)
     fft          :     50.87s CPU     56.41s WALL (    7568 calls)
     ffts         :      2.84s CPU      3.52s WALL (     922 calls)
     fftw         :   3081.91s CPU   3111.63s WALL ( 2131214 calls)
     interpolate  :      5.04s CPU      5.91s WALL (     468 calls)

     Parallel routines

     PWSCF        :      2h52m CPU      2h53m WALL


   This run was terminated on:  17:36:20   6Aug2024            

=------------------------------------------------------------------------------=
   JOB DONE.
=------------------------------------------------------------------------------=
