
     Program PWSCF v.7.3.1 starts on 11Jul2024 at 15:30:39 

     This program is part of the open-source Quantum ESPRESSO suite
     for quantum simulation of materials; please cite
         "P. Giannozzi et al., J. Phys.:Condens. Matter 21 395502 (2009);
         "P. Giannozzi et al., J. Phys.:Condens. Matter 29 465901 (2017);
         "P. Giannozzi et al., J. Chem. Phys. 152 154105 (2020);
          URL http://www.quantum-espresso.org", 
     in publications or presentations arising from this work. More details at
     http://www.quantum-espresso.org/quote

     Parallel version (MPI), running on    24 processors

     MPI processes distributed on     1 nodes
     94412 MiB available memory on the printing compute node when the environment starts

     Waiting for input...
     Reading input from standard input

     Current dimensions of program PWSCF are:
     Max number of different atomic species (ntypx) = 10
     Max number of k-points (npk) =  40000
     Max angular momentum in pseudopotentials (lmaxx) =  4

     R & G space division:  proc/nbgrp/npool/nimage =      24
     Subspace diagonalization in iterative solution of the eigenvalue problem:
     a serial algorithm will be used


     Parallelization info
     --------------------
     sticks:   dense  smooth     PW     G-vecs:    dense   smooth      PW
     Min         434     217     60                22836     8069    1168
     Max         436     218     61                22837     8072    1169
     Sum       10433    5227   1445               548067   193697   28037

     Using Slab Decomposition


     Title: 
     volume variation                                                           


     bravais-lattice index     =            8
     lattice parameter (alat)  =      12.6402  a.u.
     unit-cell volume          =    1434.1051 (a.u.)^3
     number of atoms/cell      =           22
     number of atomic types    =            3
     number of electrons       =        48.00
     number of Kohn-Sham states=           24
     kinetic-energy cutoff     =     100.0000  Ry
     charge density cutoff     =     800.0000  Ry
     scf convergence threshold =      1.0E-10
     mixing beta               =       0.7000
     number of iterations used =            8  plain     mixing
     energy convergence thresh.=      1.0E-05
     force convergence thresh. =      1.0E-05
     press convergence thresh. =      5.0E-01
     Exchange-correlation= PBESOL
                           (   1   4  10   8   0   0   0)
     nstep                     =          100


     celldm(1)=  12.640201  celldm(2)=   1.025571  celldm(3)=   0.692394
     celldm(4)=   0.000000  celldm(5)=   0.000000  celldm(6)=   0.000000

     crystal axes: (cart. coord. in units of alat)
               a(1) = (   1.000000   0.000000   0.000000 )  
               a(2) = (   0.000000   1.025571   0.000000 )  
               a(3) = (   0.000000   0.000000   0.692394 )  

     reciprocal axes: (cart. coord. in units 2 pi/alat)
               b(1) = (  1.000000  0.000000  0.000000 )  
               b(2) = (  0.000000  0.975067  0.000000 )  
               b(3) = (  0.000000  0.000000  1.444264 )  


     PseudoPot. # 1 for B  read from file:
     /home/mehlhorn/pseudos/b_pbesol_v1.4.uspp.F.UPF
     MD5 check sum: 369b69bef2c3aeed4453bd8b804fd6a8
     Pseudo is Ultrasoft + core correction, Zval =  3.0
     Generated by new atomic code, or converted to UPF format
     Using radial grid of  781 points,  4 beta functions with: 
                l(1) =   0
                l(2) =   0
                l(3) =   1
                l(4) =   1
     Q(r) pseudized with  8 coefficients,  rinner =    1.100   1.100   1.100


     PseudoPot. # 2 for Ba read from file:
     /home/mehlhorn/pseudos/Ba.nc.z_10.oncvpsp4.dojo.v4-sp.upf
     MD5 check sum: c10ed334bb677c0554edec7181ce9143
     Pseudo is Norm-conserving + core correction, Zval = 10.0
     Generated using ONCVPSP code by D. R. Hamann
     Using radial grid of 1938 points,  8 beta functions with: 
                l(1) =   0
                l(2) =   0
                l(3) =   1
                l(4) =   1
                l(5) =   2
                l(6) =   2
                l(7) =   3
                l(8) =   3

     PseudoPot. # 3 for H  read from file:
     /home/mehlhorn/pseudos/H_ONCV_PBEsol-1.0.upf
     MD5 check sum: 398ef8f67c0a7342c05c87c5e19ea467
     Pseudo is Norm-conserving, Zval =  1.0
     Generated using ONCVPSP code by D. R. Hamann
     Using radial grid of 1180 points,  2 beta functions with: 
                l(1) =   0
                l(2) =   0

     atomic species   valence    mass     pseudopotential
     B                 3.00    10.81100     B ( 1.00)
     Ba               10.00   137.32700     Ba( 1.00)
     H                 1.00     1.00794     H ( 1.00)

      4 Sym. Ops. (no inversion) found ( 2 have fractional translation)



   Cartesian axes

     site n.     atom                  positions (alat units)
         1        Ba     tau(   1) = (   0.5000000   0.5127855   0.3462657  )
         2        Ba     tau(   2) = (   0.0000000   0.0000000   0.6923255  )
         3        B      tau(   3) = (   0.6102570   0.2453190   0.0000455  )
         4        B      tau(   4) = (   0.3897430   0.7802519   0.0000455  )
         5        B      tau(   5) = (   0.1102570   0.2674665   0.3461516  )
         6        B      tau(   6) = (   0.8897430   0.7581045   0.3461516  )
         7        H      tau(   7) = (   0.4340973   0.2996264   0.0001599  )
         8        H      tau(   8) = (   0.5659027   0.7259445   0.0001599  )
         9        H      tau(   9) = (   0.9340973   0.2131590   0.3460372  )
        10        H      tau(  10) = (   0.0659027   0.8124119   0.3460372  )
        11        H      tau(  11) = (   0.7220603   0.3933629  -0.0000058  )
        12        H      tau(  12) = (   0.2779397   0.6322081  -0.0000058  )
        13        H      tau(  13) = (   0.2220603   0.1194226   0.3462029  )
        14        H      tau(  14) = (   0.7779397   0.9061483   0.3462029  )
        15        H      tau(  15) = (   0.6392499   0.1457279   0.5404125  )
        16        H      tau(  16) = (   0.3607501   0.8798430   0.5404125  )
        17        H      tau(  17) = (   0.1392499   0.3670576   0.4981787  )
        18        H      tau(  18) = (   0.8607501   0.6585133   0.4981787  )
        19        H      tau(  19) = (   0.3605328   0.8798946   0.1519977  )
        20        H      tau(  20) = (   0.6394672   0.1456763   0.1519977  )
        21        H      tau(  21) = (   0.8605328   0.6584617   0.1941994  )
        22        H      tau(  22) = (   0.1394672   0.3671092   0.1941994  )

     number of k points=    27
                       cart. coord. in units 2pi/alat
        k(    1) = (   0.0000000   0.0000000   0.0000000), wk =   0.0312500
        k(    2) = (   0.0000000   0.0000000   0.3610660), wk =   0.0625000
        k(    3) = (   0.0000000   0.0000000  -0.7221320), wk =   0.0312500
        k(    4) = (   0.0000000   0.2437667   0.0000000), wk =   0.0625000
        k(    5) = (   0.0000000   0.2437667   0.3610660), wk =   0.1250000
        k(    6) = (   0.0000000   0.2437667  -0.7221320), wk =   0.0625000
        k(    7) = (   0.0000000  -0.4875333   0.0000000), wk =   0.0312500
        k(    8) = (   0.0000000  -0.4875333   0.3610660), wk =   0.0625000
        k(    9) = (   0.0000000  -0.4875333  -0.7221320), wk =   0.0312500
        k(   10) = (   0.2500000   0.0000000   0.0000000), wk =   0.0625000
        k(   11) = (   0.2500000   0.0000000   0.3610660), wk =   0.1250000
        k(   12) = (   0.2500000   0.0000000  -0.7221320), wk =   0.0625000
        k(   13) = (   0.2500000   0.2437667   0.0000000), wk =   0.1250000
        k(   14) = (   0.2500000   0.2437667   0.3610660), wk =   0.2500000
        k(   15) = (   0.2500000   0.2437667  -0.7221320), wk =   0.1250000
        k(   16) = (   0.2500000  -0.4875333   0.0000000), wk =   0.0625000
        k(   17) = (   0.2500000  -0.4875333   0.3610660), wk =   0.1250000
        k(   18) = (   0.2500000  -0.4875333  -0.7221320), wk =   0.0625000
        k(   19) = (  -0.5000000   0.0000000   0.0000000), wk =   0.0312500
        k(   20) = (  -0.5000000   0.0000000   0.3610660), wk =   0.0625000
        k(   21) = (  -0.5000000   0.0000000  -0.7221320), wk =   0.0312500
        k(   22) = (  -0.5000000   0.2437667   0.0000000), wk =   0.0625000
        k(   23) = (  -0.5000000   0.2437667   0.3610660), wk =   0.1250000
        k(   24) = (  -0.5000000   0.2437667  -0.7221320), wk =   0.0625000
        k(   25) = (  -0.5000000  -0.4875333   0.0000000), wk =   0.0312500
        k(   26) = (  -0.5000000  -0.4875333   0.3610660), wk =   0.0625000
        k(   27) = (  -0.5000000  -0.4875333  -0.7221320), wk =   0.0312500

     Dense  grid:   548067 G-vectors     FFT dimensions: ( 120, 120,  80)

     Smooth grid:   193697 G-vectors     FFT dimensions: (  90,  90,  60)

     Estimated max dynamical RAM per process >      91.08 MB

     Estimated total dynamical RAM >       2.13 GB

     Initial potential from superposition of free atoms

     starting charge      47.9682, renormalised to      48.0000
     Starting wfcs are   42 randomized atomic wfcs

     total cpu time spent up to now is       12.4 secs

     Self-consistent Calculation

     iteration #  1     ecut=   100.00 Ry     beta= 0.70
     Davidson diagonalization with overlap
     ethr =  1.00E-02,  avg # of iterations =  2.0

     total cpu time spent up to now is       28.6 secs

     total energy              =    -155.93085297 Ry
     estimated scf accuracy    <       2.07525893 Ry

     iteration #  2     ecut=   100.00 Ry     beta= 0.70
     Davidson diagonalization with overlap
     ethr =  4.32E-03,  avg # of iterations =  2.0

     total cpu time spent up to now is       44.2 secs

     total energy              =    -156.40943679 Ry
     estimated scf accuracy    <       0.36962320 Ry

     iteration #  3     ecut=   100.00 Ry     beta= 0.70
     Davidson diagonalization with overlap
     ethr =  7.70E-04,  avg # of iterations =  2.0

     total cpu time spent up to now is       59.7 secs

     total energy              =    -156.47105916 Ry
     estimated scf accuracy    <       0.00486701 Ry

     iteration #  4     ecut=   100.00 Ry     beta= 0.70
     Davidson diagonalization with overlap
     ethr =  1.01E-05,  avg # of iterations =  5.1

     total cpu time spent up to now is       82.2 secs

     total energy              =    -156.47412395 Ry
     estimated scf accuracy    <       0.00170289 Ry

     iteration #  5     ecut=   100.00 Ry     beta= 0.70
     Davidson diagonalization with overlap
     ethr =  3.55E-06,  avg # of iterations =  3.1

     total cpu time spent up to now is       98.3 secs

     total energy              =    -156.47471334 Ry
     estimated scf accuracy    <       0.00017046 Ry

     iteration #  6     ecut=   100.00 Ry     beta= 0.70
     Davidson diagonalization with overlap
     ethr =  3.55E-07,  avg # of iterations =  4.0

     total cpu time spent up to now is      116.0 secs

     total energy              =    -156.47477694 Ry
     estimated scf accuracy    <       0.00000112 Ry

     iteration #  7     ecut=   100.00 Ry     beta= 0.70
     Davidson diagonalization with overlap
     ethr =  2.33E-09,  avg # of iterations =  9.2

     total cpu time spent up to now is      152.8 secs

     total energy              =    -156.47478618 Ry
     estimated scf accuracy    <       0.00000103 Ry

     iteration #  8     ecut=   100.00 Ry     beta= 0.70
     Davidson diagonalization with overlap
     ethr =  2.15E-09,  avg # of iterations =  2.0

     total cpu time spent up to now is      168.4 secs

     total energy              =    -156.47478643 Ry
     estimated scf accuracy    <       0.00000003 Ry

     iteration #  9     ecut=   100.00 Ry     beta= 0.70
     Davidson diagonalization with overlap
     ethr =  6.72E-11,  avg # of iterations =  5.5

     total cpu time spent up to now is      188.9 secs

     total energy              =    -156.47478645 Ry
     estimated scf accuracy    <          3.3E-09 Ry

     iteration # 10     ecut=   100.00 Ry     beta= 0.70
     Davidson diagonalization with overlap
     ethr =  6.78E-12,  avg # of iterations =  4.0

     total cpu time spent up to now is      207.4 secs

     total energy              =    -156.47478645 Ry
     estimated scf accuracy    <          1.1E-09 Ry

     iteration # 11     ecut=   100.00 Ry     beta= 0.70
     Davidson diagonalization with overlap
     ethr =  2.26E-12,  avg # of iterations =  2.1

     total cpu time spent up to now is      223.1 secs

     End of self-consistent calculation

          k = 0.0000 0.0000 0.0000 ( 24211 PWs)   bands (ev):

   -23.8267 -23.8173  -9.3870  -9.2960  -9.0938  -9.0535  -9.0241  -8.9582
    -5.9987  -5.0336  -4.3356  -4.1873  -1.7012  -0.7807  -0.7087  -0.3585
     0.0251   0.0439   0.0918   0.2132   0.3800   0.7965   0.8128   0.8552

          k = 0.0000 0.0000 0.3611 ( 24222 PWs)   bands (ev):

   -23.8186 -23.8120  -9.2882  -9.2872  -9.2622  -9.2265  -9.0751  -9.0529
    -5.4832  -4.7646  -4.5146  -4.4212  -1.3124  -1.0533  -0.5957  -0.5419
    -0.3929  -0.2723   0.1002   0.3924   0.5892   0.6297   0.7070   0.8570

          k = 0.0000 0.0000-0.7221 ( 24208 PWs)   bands (ev):

   -23.8085 -23.8085  -9.5136  -9.5134  -9.1382  -9.1382  -9.0847  -9.0846
    -4.7556  -4.7551  -4.6782  -4.6776  -1.0737  -1.0732  -1.0606  -1.0590
     0.0118   0.0126   0.0920   0.0938   0.6730   0.6730   0.6867   0.6872

          k = 0.0000 0.2438 0.0000 ( 24213 PWs)   bands (ev):

   -23.8253 -23.8187  -9.3568  -9.2641  -9.1502  -9.0906  -9.0142  -8.9676
    -5.7932  -4.9402  -4.6312  -4.3215  -1.3300  -0.8968  -0.8581  -0.0733
    -0.0581  -0.0359   0.2603   0.3841   0.4654   0.4733   0.7073   0.7839

          k = 0.0000 0.2438 0.3611 ( 24215 PWs)   bands (ev):

   -23.8176 -23.8129  -9.3354  -9.2946  -9.2108  -9.1971  -9.0848  -9.0759
    -5.3754  -4.8415  -4.5575  -4.4619  -1.1193  -1.0780  -0.8812  -0.3015
    -0.2566  -0.0614  -0.0481   0.4457   0.5212   0.5708   0.6756   0.7336

          k = 0.0000 0.2438-0.7221 ( 24196 PWs)   bands (ev):

   -23.8085 -23.8085  -9.5278  -9.5276  -9.1188  -9.1188  -9.0837  -9.0837
    -5.0494  -5.0494  -4.3725  -4.3725  -1.1980  -1.1974  -0.8789  -0.8781
     0.0880   0.0882   0.1328   0.1344   0.4961   0.4962   0.6814   0.6817

          k = 0.0000-0.4875 0.0000 ( 24190 PWs)   bands (ev):

   -23.8220 -23.8220  -9.2709  -9.2709  -9.1750  -9.1750  -8.9907  -8.9907
    -5.2802  -5.2802  -4.6177  -4.6177  -1.0208  -1.0208  -0.3829  -0.3829
    -0.1400  -0.1400   0.3779   0.3779   0.5108   0.5108   0.6364   0.6364

          k = 0.0000-0.4875 0.3611 ( 24226 PWs)   bands (ev):

   -23.8152 -23.8152  -9.3347  -9.3347  -9.1517  -9.1517  -9.1163  -9.1163
    -5.1071  -5.1071  -4.5361  -4.5361  -1.0617  -1.0617  -0.6451  -0.6451
    -0.0093  -0.0093   0.2775   0.2775   0.4341   0.4341   0.6507   0.6507

          k = 0.0000-0.4875-0.7221 ( 24212 PWs)   bands (ev):

   -23.8085 -23.8085  -9.5407  -9.5407  -9.1024  -9.1024  -9.0808  -9.0808
    -5.1836  -5.1836  -4.2267  -4.2267  -1.2904  -1.2904  -0.6272  -0.6272
     0.0099   0.0099   0.2086   0.2086   0.2990   0.2990   0.7189   0.7189

          k = 0.2500 0.0000 0.0000 ( 24208 PWs)   bands (ev):

   -23.8253 -23.8187  -9.3466  -9.2767  -9.1393  -9.1085  -9.0142  -8.9676
    -5.8020  -5.0640  -4.3779  -4.3479  -1.5063  -0.6347  -0.6202  -0.4877
     0.0667   0.1044   0.1704   0.2375   0.3372   0.3636   0.7604   0.7984

          k = 0.2500 0.0000 0.3611 ( 24217 PWs)   bands (ev):

   -23.8176 -23.8129  -9.3260  -9.3069  -9.2408  -9.1721  -9.1017  -9.0633
    -5.3303  -4.7476  -4.5556  -4.5487  -1.2830  -1.0342  -0.8877  -0.3515
    -0.3358  -0.0570   0.1739   0.3114   0.4521   0.5833   0.7794   0.8073

          k = 0.2500 0.0000-0.7221 ( 24264 PWs)   bands (ev):

   -23.8085 -23.8085  -9.5327  -9.5326  -9.1238  -9.1238  -9.0812  -9.0811
    -4.8434  -4.8431  -4.5582  -4.5579  -1.5518  -1.5513  -0.6079  -0.6074
     0.0054   0.0058   0.3433   0.3447   0.4715   0.4716   0.7200   0.7204

          k = 0.2500 0.2438 0.0000 ( 24201 PWs)   bands (ev):

   -23.8243 -23.8196  -9.3758  -9.2513  -9.1943  -9.0604  -9.0071  -8.9741
    -5.6564  -5.0214  -4.6282  -4.3814  -1.2107  -0.8695  -0.6512  -0.1835
    -0.1121  -0.0630   0.2466   0.3939   0.4107   0.4912   0.5630   0.7130

          k = 0.2500 0.2438 0.3611 ( 24212 PWs)   bands (ev):

   -23.8169 -23.8136  -9.3285  -9.2869  -9.2801  -9.1511  -9.1133  -9.0562
    -5.2400  -4.7880  -4.6455  -4.5413  -1.2453  -1.0003  -0.9032  -0.3391
    -0.1771   0.0026   0.1069   0.3311   0.4312   0.5460   0.6989   0.7853

          k = 0.2500 0.2438-0.7221 ( 24238 PWs)   bands (ev):

   -23.8085 -23.8085  -9.5399  -9.5153  -9.1464  -9.1043  -9.0891  -9.0816
    -5.0604  -4.8723  -4.5212  -4.3277  -1.5276  -1.4444  -0.6796  -0.5695
    -0.0447  -0.0415   0.3128   0.3795   0.4855   0.5310   0.6669   0.6987

          k = 0.2500-0.4875 0.0000 ( 24214 PWs)   bands (ev):

   -23.8219 -23.8219  -9.3495  -9.3495  -9.0968  -9.0968  -8.9903  -8.9903
    -5.2846  -5.2846  -4.6023  -4.6023  -0.9247  -0.9247  -0.3931  -0.3931
    -0.1793  -0.1793   0.3072   0.3072   0.5500   0.5500   0.5704   0.5704

          k = 0.2500-0.4875 0.3611 ( 24208 PWs)   bands (ev):

   -23.8152 -23.8152  -9.3228  -9.3228  -9.2170  -9.2170  -9.0709  -9.0709
    -5.0152  -5.0152  -4.6078  -4.6078  -1.1529  -1.1529  -0.5684  -0.5684
    -0.0334  -0.0334   0.2972   0.2972   0.4440   0.4440   0.6707   0.6707

          k = 0.2500-0.4875-0.7221 ( 24216 PWs)   bands (ev):

   -23.8084 -23.8084  -9.5237  -9.5237  -9.1277  -9.1277  -9.0877  -9.0877
    -5.0707  -5.0707  -4.3093  -4.3093  -1.4129  -1.4129  -0.6882  -0.6882
     0.0728   0.0728   0.2018   0.2018   0.5238   0.5238   0.6863   0.6863

          k =-0.5000 0.0000 0.0000 ( 24228 PWs)   bands (ev):

   -23.8219 -23.8219  -9.2472  -9.2472  -9.2079  -9.2079  -8.9907  -8.9907
    -5.3612  -5.3612  -4.4489  -4.4489  -1.0755  -1.0755  -0.2659  -0.2659
     0.1062   0.1062   0.1239   0.1239   0.2174   0.2174   0.6468   0.6468

          k =-0.5000 0.0000 0.3611 ( 24268 PWs)   bands (ev):

   -23.8152 -23.8152  -9.3388  -9.3388  -9.1748  -9.1748  -9.1011  -9.1011
    -4.9716  -4.9716  -4.6189  -4.6189  -1.2064  -1.2064  -0.6303  -0.6303
    -0.0315  -0.0315   0.1633   0.1633   0.5462   0.5462   0.7659   0.7659

          k =-0.5000 0.0000-0.7221 ( 24224 PWs)   bands (ev):

   -23.8084 -23.8084  -9.5504  -9.5504  -9.1121  -9.1121  -9.0763  -9.0763
    -4.8887  -4.8887  -4.4780  -4.4780  -1.7678  -1.7678  -0.3051  -0.3051
     0.0009   0.0009   0.1717   0.1717   0.6624   0.6624   0.6775   0.6775

          k =-0.5000 0.2438 0.0000 ( 24158 PWs)   bands (ev):

   -23.8219 -23.8219  -9.3479  -9.3479  -9.1030  -9.1030  -8.9903  -8.9903
    -5.3285  -5.3285  -4.5146  -4.5146  -0.9655  -0.9655  -0.2722  -0.2722
    -0.1112  -0.1112   0.0831   0.0831   0.4581   0.4581   0.6258   0.6258

          k =-0.5000 0.2438 0.3611 ( 24232 PWs)   bands (ev):

   -23.8152 -23.8152  -9.3255  -9.3255  -9.2215  -9.2215  -9.0697  -9.0697
    -4.9277  -4.9277  -4.6687  -4.6687  -1.2116  -1.2116  -0.6014  -0.6014
     0.0034   0.0034   0.2107   0.2107   0.5389   0.5389   0.6956   0.6956

          k =-0.5000 0.2438-0.7221 ( 24248 PWs)   bands (ev):

   -23.8084 -23.8084  -9.5290  -9.5290  -9.1305  -9.1305  -9.0870  -9.0870
    -4.9063  -4.9063  -4.4517  -4.4517  -1.6630  -1.6630  -0.5190  -0.5190
     0.0457   0.0457   0.2460   0.2460   0.5975   0.5975   0.7396   0.7396

          k =-0.5000-0.4875 0.0000 ( 24184 PWs)   bands (ev):

   -23.8219 -23.8219  -9.3955  -9.3955  -9.0511  -9.0511  -8.9899  -8.9899
    -5.2908  -5.2908  -4.5840  -4.5840  -0.8080  -0.8080  -0.4265  -0.4265
    -0.2148  -0.2148   0.2748   0.2748   0.4672   0.4672   0.5853   0.5853

          k =-0.5000-0.4875 0.3611 ( 24244 PWs)   bands (ev):

   -23.8152 -23.8152  -9.2994  -9.2994  -9.2680  -9.2680  -9.0512  -9.0512
    -4.8550  -4.8550  -4.7470  -4.7470  -1.1993  -1.1993  -0.6412  -0.6412
     0.1577   0.1577   0.2989   0.2989   0.4452   0.4452   0.6012   0.6012

          k =-0.5000-0.4875-0.7221 ( 24240 PWs)   bands (ev):

   -23.8084 -23.8084  -9.5046  -9.5046  -9.1553  -9.1553  -9.0942  -9.0942
    -4.9228  -4.9228  -4.4263  -4.4263  -1.5022  -1.5022  -0.8173  -0.8173
     0.2740   0.2740   0.3214   0.3214   0.4672   0.4672   0.7049   0.7049

     highest occupied level (ev):     0.8570

!    total energy              =    -156.47478645 Ry
     estimated scf accuracy    <          3.6E-11 Ry

     The total energy is the sum of the following terms:
     one-electron contribution =     -21.73772307 Ry
     hartree contribution      =      25.33334271 Ry
     xc contribution           =     -49.11948718 Ry
     ewald contribution        =    -110.95091892 Ry

     convergence has been achieved in  11 iterations

     Forces acting on atoms (cartesian axes, Ry/au):

     atom    1 type  2   force =     0.00000000    0.00000000    0.00001301
     atom    2 type  2   force =     0.00000000    0.00000000   -0.00001301
     atom    3 type  1   force =     0.00003151    0.00015681   -0.00001278
     atom    4 type  1   force =    -0.00003151   -0.00015681   -0.00001278
     atom    5 type  1   force =     0.00003151   -0.00015681    0.00001278
     atom    6 type  1   force =    -0.00003151    0.00015681    0.00001278
     atom    7 type  3   force =     0.00133687   -0.00034078   -0.00001685
     atom    8 type  3   force =    -0.00133687    0.00034078   -0.00001685
     atom    9 type  3   force =     0.00133687    0.00034078    0.00001685
     atom   10 type  3   force =    -0.00133687   -0.00034078    0.00001685
     atom   11 type  3   force =    -0.00088807   -0.00106559    0.00000583
     atom   12 type  3   force =     0.00088807    0.00106559    0.00000583
     atom   13 type  3   force =    -0.00088807    0.00106559   -0.00000583
     atom   14 type  3   force =     0.00088807   -0.00106559   -0.00000583
     atom   15 type  3   force =    -0.00014152    0.00077938    0.00119102
     atom   16 type  3   force =     0.00014152   -0.00077938    0.00119102
     atom   17 type  3   force =    -0.00014152   -0.00077938   -0.00119102
     atom   18 type  3   force =     0.00014152    0.00077938   -0.00119102
     atom   19 type  3   force =     0.00018910   -0.00079895   -0.00120034
     atom   20 type  3   force =    -0.00018910    0.00079895   -0.00120034
     atom   21 type  3   force =     0.00018910    0.00079895    0.00120034
     atom   22 type  3   force =    -0.00018910   -0.00079895    0.00120034

     Total force =     0.005662     Total SCF correction =     0.000003


     Computing stress (Cartesian axis) and pressure

          total   stress  (Ry/bohr**3)                   (kbar)     P=       -3.02
  -0.00001911   0.00000000   0.00000000           -2.81        0.00        0.00
   0.00000000  -0.00001953   0.00000000            0.00       -2.87        0.00
   0.00000000   0.00000000  -0.00002293            0.00        0.00       -3.37

     Volume is kept fixed: isostatic pressure set to zero

     BFGS Geometry Optimization
     Energy error            =      0.0E+00 Ry
     Gradient error          =      1.3E-03 Ry/Bohr
     Cell gradient error     =      3.5E-01 kbar

     number of scf cycles    =   1
     number of bfgs steps    =   0

     enthalpy           new  =    -156.4747864533 Ry

     new trust radius        =       0.0014542627 bohr
ibrav =      8
 celldm(1) =     12.64064691
 celldm(2) =      1.02556009
 celldm(3) =      0.69232813
Input lattice vectors:
     1.00003531     0.00000000     0.00000000
     0.00000000     1.02559630     0.00000000
     0.00000000     0.00000000     0.69235258
New lattice vectors in INITIAL alat:
     1.00003531     0.00000000     0.00000000
     0.00000000     1.02559630     0.00000000
     0.00000000     0.00000000     0.69235258
New lattice vectors in NEW alat (for information only):
     1.00000000     0.00000000     0.00000000
     0.00000000     1.02556009     0.00000000
     0.00000000     0.00000000     0.69232813
Discrepancy in bohr =     0.000000    0.000000    0.000000
     new conv_thr            =            1.0E-10 Ry

     new unit-cell volume =   1434.10514 a.u.^3 (   212.51246 Ang^3 )
     density =      2.61002 g/cm^3

CELL_PARAMETERS (alat= 12.64020058)
   1.000035310   0.000000000   0.000000000
   0.000000000   1.025596305   0.000000000
   0.000000000   0.000000000   0.692352577

ATOMIC_POSITIONS (crystal)
Ba               0.5000000000        0.5000000000        0.5001006523
Ba               0.0000000000        0.0000000000        0.9998993477
B                0.6102595092        0.2392144769        0.0000641962
B                0.3897404908        0.7607855231        0.0000641962
B                0.1102595092        0.2607855231        0.4999358038
B                0.8897404908        0.7392144769        0.4999358038
H                0.4342030159        0.2921294410        0.0002290074
H                0.5657969841        0.7078705590        0.0002290074
H                0.9342030159        0.2078705590        0.4997709926
H                0.0657969841        0.7921294410        0.4997709926
H                0.7219900105        0.3834728095       -0.0000077051
H                0.2780099895        0.6165271905       -0.0000077051
H                0.2219900105        0.1165271905        0.5000077051
H                0.7780099895        0.8834728095        0.5000077051
H                0.6392387285        0.1421545166        0.7806344993
H                0.3607612715        0.8578454834        0.7806344993
H                0.1392387285        0.3578454834        0.7193655007
H                0.8607612715        0.6421545166        0.7193655007
H                0.3605477909        0.8578942839        0.2193876984
H                0.6394522091        0.1421057161        0.2193876984
H                0.8605477909        0.6421057161        0.2806123016
H                0.1394522091        0.3578942839        0.2806123016



     Writing config-only to output data dir ./pwscf.save/ :
     XML data file
     NEW-OLD atomic charge density approx. for the potential

     total cpu time spent up to now is      253.9 secs

     Self-consistent Calculation

     iteration #  1     ecut=   100.00 Ry     beta= 0.70
     Davidson diagonalization with overlap
     ethr =  1.00E-06,  avg # of iterations =  2.0

     Threshold (ethr) on eigenvalues was too large:
     Diagonalizing with lowered threshold

     Davidson diagonalization with overlap
     ethr =  1.10E-08,  avg # of iterations =  2.0

     total cpu time spent up to now is      283.0 secs

     total energy              =    -156.47480996 Ry
     estimated scf accuracy    <       0.00000790 Ry

     iteration #  2     ecut=   100.00 Ry     beta= 0.70
     Davidson diagonalization with overlap
     ethr =  1.65E-08,  avg # of iterations =  2.0

     total cpu time spent up to now is      298.4 secs

     total energy              =    -156.47481224 Ry
     estimated scf accuracy    <       0.00000168 Ry

     iteration #  3     ecut=   100.00 Ry     beta= 0.70
     Davidson diagonalization with overlap
     ethr =  3.50E-09,  avg # of iterations =  2.0

     total cpu time spent up to now is      313.8 secs

     total energy              =    -156.47481246 Ry
     estimated scf accuracy    <       0.00000002 Ry

     iteration #  4     ecut=   100.00 Ry     beta= 0.70
     Davidson diagonalization with overlap
     ethr =  4.99E-11,  avg # of iterations =  3.0

     total cpu time spent up to now is      332.7 secs

     total energy              =    -156.47481247 Ry
     estimated scf accuracy    <       0.00000002 Ry

     iteration #  5     ecut=   100.00 Ry     beta= 0.70
     Davidson diagonalization with overlap
     ethr =  3.54E-11,  avg # of iterations =  2.0

     total cpu time spent up to now is      348.1 secs

     total energy              =    -156.47481247 Ry
     estimated scf accuracy    <          7.7E-10 Ry

     iteration #  6     ecut=   100.00 Ry     beta= 0.70
     Davidson diagonalization with overlap
     ethr =  1.61E-12,  avg # of iterations =  3.4

     total cpu time spent up to now is      365.5 secs

     total energy              =    -156.47481247 Ry
     estimated scf accuracy    <          1.8E-10 Ry

     iteration #  7     ecut=   100.00 Ry     beta= 0.70
     Davidson diagonalization with overlap
     ethr =  3.69E-13,  avg # of iterations =  3.1

     total cpu time spent up to now is      381.7 secs

     End of self-consistent calculation

          k = 0.0000 0.0000 0.0000 ( 24211 PWs)   bands (ev):

   -23.8280 -23.8187  -9.3884  -9.2972  -9.0951  -9.0547  -9.0253  -8.9594
    -6.0013  -5.0378  -4.3395  -4.1916  -1.7011  -0.7823  -0.7095  -0.3610
     0.0230   0.0430   0.0903   0.2112   0.3782   0.7936   0.8099   0.8520

          k = 0.0000 0.0000 0.3611 ( 24222 PWs)   bands (ev):

   -23.8199 -23.8133  -9.2895  -9.2886  -9.2636  -9.2277  -9.0763  -9.0541
    -5.4859  -4.7687  -4.5188  -4.4256  -1.3121  -1.0536  -0.5960  -0.5436
    -0.3945  -0.2739   0.0980   0.3899   0.5865   0.6268   0.7045   0.8541

          k = 0.0000 0.0000-0.7222 ( 24208 PWs)   bands (ev):

   -23.8098 -23.8098  -9.5151  -9.5149  -9.1394  -9.1394  -9.0859  -9.0859
    -4.7590  -4.7585  -4.6826  -4.6820  -1.0737  -1.0732  -1.0605  -1.0589
     0.0095   0.0103   0.0899   0.0917   0.6701   0.6702   0.6840   0.6844

          k = 0.0000 0.2438 0.0000 ( 24213 PWs)   bands (ev):

   -23.8266 -23.8200  -9.3581  -9.2654  -9.1514  -9.0918  -9.0154  -8.9688
    -5.7959  -4.9444  -4.6347  -4.3257  -1.3304  -0.8975  -0.8594  -0.0752
    -0.0598  -0.0386   0.2587   0.3821   0.4628   0.4713   0.7044   0.7810

          k = 0.0000 0.2438 0.3611 ( 24215 PWs)   bands (ev):

   -23.8189 -23.8142  -9.3367  -9.2960  -9.2121  -9.1984  -9.0861  -9.0771
    -5.3783  -4.8454  -4.5615  -4.4662  -1.1194  -1.0783  -0.8818  -0.3028
    -0.2583  -0.0638  -0.0499   0.4431   0.5185   0.5680   0.6729   0.7308

          k = 0.0000 0.2438-0.7222 ( 24196 PWs)   bands (ev):

   -23.8098 -23.8098  -9.5292  -9.5291  -9.1200  -9.1199  -9.0850  -9.0850
    -5.0533  -5.0533  -4.3764  -4.3764  -1.1980  -1.1974  -0.8790  -0.8782
     0.0857   0.0859   0.1306   0.1322   0.4935   0.4936   0.6786   0.6788

          k = 0.0000-0.4875 0.0000 ( 24190 PWs)   bands (ev):

   -23.8233 -23.8233  -9.2723  -9.2723  -9.1763  -9.1763  -8.9919  -8.9919
    -5.2832  -5.2832  -4.6218  -4.6218  -1.0215  -1.0215  -0.3845  -0.3845
    -0.1417  -0.1417   0.3751   0.3751   0.5087   0.5087   0.6339   0.6339

          k = 0.0000-0.4875 0.3611 ( 24226 PWs)   bands (ev):

   -23.8166 -23.8166  -9.3360  -9.3360  -9.1530  -9.1530  -9.1175  -9.1175
    -5.1104  -5.1104  -4.5402  -4.5402  -1.0619  -1.0619  -0.6461  -0.6461
    -0.0113  -0.0113   0.2754   0.2754   0.4313   0.4313   0.6481   0.6481

          k = 0.0000-0.4875-0.7222 ( 24212 PWs)   bands (ev):

   -23.8098 -23.8098  -9.5421  -9.5421  -9.1036  -9.1036  -9.0820  -9.0820
    -5.1875  -5.1875  -4.2306  -4.2306  -1.2904  -1.2904  -0.6274  -0.6274
     0.0075   0.0075   0.2065   0.2065   0.2964   0.2964   0.7160   0.7160

          k = 0.2500 0.0000 0.0000 ( 24208 PWs)   bands (ev):

   -23.8266 -23.8200  -9.3480  -9.2779  -9.1405  -9.1097  -9.0154  -8.9688
    -5.8047  -5.0679  -4.3819  -4.3520  -1.5063  -0.6359  -0.6212  -0.4896
     0.0650   0.1025   0.1686   0.2354   0.3351   0.3611   0.7574   0.7953

          k = 0.2500 0.0000 0.3611 ( 24217 PWs)   bands (ev):

   -23.8189 -23.8142  -9.3273  -9.3083  -9.2421  -9.1734  -9.1030  -9.0645
    -5.3331  -4.7515  -4.5598  -4.5529  -1.2826  -1.0348  -0.8878  -0.3531
    -0.3377  -0.0588   0.1715   0.3091   0.4496   0.5807   0.7764   0.8045

          k = 0.2500 0.0000-0.7222 ( 24264 PWs)   bands (ev):

   -23.8098 -23.8098  -9.5342  -9.5340  -9.1250  -9.1250  -9.0824  -9.0824
    -4.8475  -4.8472  -4.5620  -4.5616  -1.5514  -1.5509  -0.6084  -0.6079
     0.0031   0.0035   0.3410   0.3424   0.4690   0.4690   0.7171   0.7175

          k = 0.2500 0.2438 0.0000 ( 24201 PWs)   bands (ev):

   -23.8256 -23.8210  -9.3771  -9.2526  -9.1955  -9.0617  -9.0083  -8.9753
    -5.6593  -5.0253  -4.6320  -4.3853  -1.2113  -0.8704  -0.6526  -0.1852
    -0.1138  -0.0647   0.2442   0.3919   0.4082   0.4891   0.5602   0.7103

          k = 0.2500 0.2438 0.3611 ( 24212 PWs)   bands (ev):

   -23.8182 -23.8149  -9.3298  -9.2882  -9.2814  -9.1524  -9.1145  -9.0574
    -5.2430  -4.7919  -4.6493  -4.5455  -1.2451  -1.0004  -0.9040  -0.3408
    -0.1789   0.0007   0.1046   0.3288   0.4286   0.5433   0.6961   0.7826

          k = 0.2500 0.2438-0.7222 ( 24238 PWs)   bands (ev):

   -23.8098 -23.8098  -9.5414  -9.5168  -9.1476  -9.1055  -9.0903  -9.0828
    -5.0644  -4.8763  -4.5250  -4.3316  -1.5273  -1.4440  -0.6803  -0.5699
    -0.0469  -0.0437   0.3106   0.3772   0.4829   0.5283   0.6642   0.6957

          k = 0.2500-0.4875 0.0000 ( 24214 PWs)   bands (ev):

   -23.8233 -23.8233  -9.3508  -9.3508  -9.0981  -9.0981  -8.9915  -8.9915
    -5.2879  -5.2879  -4.6061  -4.6061  -0.9257  -0.9257  -0.3947  -0.3947
    -0.1810  -0.1810   0.3049   0.3049   0.5478   0.5478   0.5677   0.5677

          k = 0.2500-0.4875 0.3611 ( 24208 PWs)   bands (ev):

   -23.8165 -23.8165  -9.3241  -9.3241  -9.2183  -9.2183  -9.0721  -9.0721
    -5.0187  -5.0187  -4.6118  -4.6118  -1.1530  -1.1530  -0.5697  -0.5697
    -0.0353  -0.0353   0.2948   0.2948   0.4415   0.4415   0.6680   0.6680

          k = 0.2500-0.4875-0.7222 ( 24216 PWs)   bands (ev):

   -23.8098 -23.8098  -9.5251  -9.5251  -9.1289  -9.1289  -9.0890  -9.0890
    -5.0746  -5.0746  -4.3132  -4.3132  -1.4126  -1.4126  -0.6888  -0.6888
     0.0705   0.0705   0.1997   0.1997   0.5211   0.5211   0.6835   0.6835

          k =-0.5000 0.0000 0.0000 ( 24228 PWs)   bands (ev):

   -23.8233 -23.8233  -9.2486  -9.2486  -9.2091  -9.2091  -8.9919  -8.9919
    -5.3643  -5.3643  -4.4531  -4.4531  -1.0759  -1.0759  -0.2675  -0.2675
     0.1047   0.1047   0.1214   0.1214   0.2152   0.2152   0.6438   0.6438

          k =-0.5000 0.0000 0.3611 ( 24268 PWs)   bands (ev):

   -23.8165 -23.8165  -9.3401  -9.3401  -9.1761  -9.1761  -9.1023  -9.1023
    -4.9749  -4.9749  -4.6232  -4.6232  -1.2063  -1.2063  -0.6314  -0.6314
    -0.0337  -0.0337   0.1610   0.1610   0.5437   0.5437   0.7630   0.7630

          k =-0.5000 0.0000-0.7222 ( 24224 PWs)   bands (ev):

   -23.8098 -23.8098  -9.5518  -9.5518  -9.1133  -9.1133  -9.0775  -9.0775
    -4.8929  -4.8929  -4.4817  -4.4817  -1.7673  -1.7673  -0.3058  -0.3058
    -0.0013  -0.0013   0.1694   0.1694   0.6599   0.6599   0.6745   0.6745

          k =-0.5000 0.2438 0.0000 ( 24158 PWs)   bands (ev):

   -23.8233 -23.8233  -9.3492  -9.3492  -9.1043  -9.1043  -8.9915  -8.9915
    -5.3318  -5.3318  -4.5185  -4.5185  -0.9663  -0.9663  -0.2738  -0.2738
    -0.1128  -0.1128   0.0809   0.0809   0.4559   0.4559   0.6230   0.6230

          k =-0.5000 0.2438 0.3611 ( 24232 PWs)   bands (ev):

   -23.8165 -23.8165  -9.3268  -9.3268  -9.2228  -9.2228  -9.0709  -9.0709
    -4.9311  -4.9311  -4.6728  -4.6728  -1.2115  -1.2115  -0.6027  -0.6027
     0.0013   0.0013   0.2084   0.2084   0.5363   0.5363   0.6929   0.6929

          k =-0.5000 0.2438-0.7222 ( 24248 PWs)   bands (ev):

   -23.8098 -23.8098  -9.5304  -9.5304  -9.1317  -9.1317  -9.0882  -9.0882
    -4.9104  -4.9104  -4.4555  -4.4555  -1.6624  -1.6624  -0.5197  -0.5197
     0.0436   0.0436   0.2435   0.2435   0.5948   0.5948   0.7367   0.7367

          k =-0.5000-0.4875 0.0000 ( 24184 PWs)   bands (ev):

   -23.8232 -23.8232  -9.3968  -9.3968  -9.0524  -9.0524  -8.9911  -8.9911
    -5.2944  -5.2944  -4.5876  -4.5876  -0.8097  -0.8097  -0.4276  -0.4276
    -0.2164  -0.2164   0.2725   0.2725   0.4647   0.4647   0.5830   0.5830

          k =-0.5000-0.4875 0.3611 ( 24244 PWs)   bands (ev):

   -23.8165 -23.8165  -9.3006  -9.3006  -9.2694  -9.2694  -9.0524  -9.0524
    -4.8586  -4.8586  -4.7509  -4.7509  -1.1993  -1.1993  -0.6425  -0.6425
     0.1557   0.1557   0.2963   0.2963   0.4427   0.4427   0.5988   0.5988

          k =-0.5000-0.4875-0.7222 ( 24240 PWs)   bands (ev):

   -23.8097 -23.8097  -9.5060  -9.5060  -9.1565  -9.1565  -9.0954  -9.0954
    -4.9269  -4.9269  -4.4301  -4.4301  -1.5017  -1.5017  -0.8181  -0.8181
     0.2716   0.2716   0.3188   0.3188   0.4648   0.4648   0.7022   0.7022

     highest occupied level (ev):     0.8541

!    total energy              =    -156.47481247 Ry
     estimated scf accuracy    <          5.3E-12 Ry

     The total energy is the sum of the following terms:
     one-electron contribution =     -21.78002708 Ry
     hartree contribution      =      25.35437875 Ry
     xc contribution           =     -49.12475284 Ry
     ewald contribution        =    -110.92441130 Ry

     convergence has been achieved in   7 iterations

     Forces acting on atoms (cartesian axes, Ry/au):

     atom    1 type  2   force =     0.00000000    0.00000000    0.00001072
     atom    2 type  2   force =     0.00000000    0.00000000   -0.00001072
     atom    3 type  1   force =     0.00004079    0.00017363   -0.00001129
     atom    4 type  1   force =    -0.00004079   -0.00017363   -0.00001129
     atom    5 type  1   force =     0.00004079   -0.00017363    0.00001129
     atom    6 type  1   force =    -0.00004079    0.00017363    0.00001129
     atom    7 type  3   force =     0.00083396   -0.00019082   -0.00001739
     atom    8 type  3   force =    -0.00083396    0.00019082   -0.00001739
     atom    9 type  3   force =     0.00083396    0.00019082    0.00001739
     atom   10 type  3   force =    -0.00083396   -0.00019082    0.00001739
     atom   11 type  3   force =    -0.00055550   -0.00061966    0.00000498
     atom   12 type  3   force =     0.00055550    0.00061966    0.00000498
     atom   13 type  3   force =    -0.00055550    0.00061966   -0.00000498
     atom   14 type  3   force =     0.00055550   -0.00061966   -0.00000498
     atom   15 type  3   force =    -0.00005469    0.00047907    0.00070611
     atom   16 type  3   force =     0.00005469   -0.00047907    0.00070611
     atom   17 type  3   force =    -0.00005469   -0.00047907   -0.00070611
     atom   18 type  3   force =     0.00005469    0.00047907   -0.00070611
     atom   19 type  3   force =     0.00009943   -0.00049621   -0.00071443
     atom   20 type  3   force =    -0.00009943    0.00049621   -0.00071443
     atom   21 type  3   force =     0.00009943    0.00049621    0.00071443
     atom   22 type  3   force =    -0.00009943   -0.00049621    0.00071443

     Total force =     0.003438     Total SCF correction =     0.000001


     Computing stress (Cartesian axis) and pressure

          total   stress  (Ry/bohr**3)                   (kbar)     P=       -2.35
  -0.00001496   0.00000000   0.00000000           -2.20        0.00        0.00
   0.00000000  -0.00001517   0.00000000            0.00       -2.23        0.00
   0.00000000   0.00000000  -0.00001787            0.00        0.00       -2.63

     Volume is kept fixed: isostatic pressure set to zero
     Energy error            =      2.6E-05 Ry
     Gradient error          =      8.3E-04 Ry/Bohr
     Cell gradient error     =      2.7E-01 kbar

     number of scf cycles    =   2
     number of bfgs steps    =   1

     enthalpy           old  =    -156.4747864533 Ry
     enthalpy           new  =    -156.4748124749 Ry

     CASE: enthalpy          _new < enthalpy          _old

     new trust radius        =       0.0021813223 bohr
ibrav =      8
 celldm(1) =     12.64146539
 celldm(2) =      1.02554650
 celldm(3) =      0.69220284
Input lattice vectors:
     1.00010006     0.00000000     0.00000000
     0.00000000     1.02564912     0.00000000
     0.00000000     0.00000000     0.69227210
New lattice vectors in INITIAL alat:
     1.00010006     0.00000000     0.00000000
     0.00000000     1.02564912     0.00000000
     0.00000000     0.00000000     0.69227210
New lattice vectors in NEW alat (for information only):
     1.00000000     0.00000000     0.00000000
     0.00000000     1.02554650     0.00000000
     0.00000000     0.00000000     0.69220284
Discrepancy in bohr =     0.000000    0.000000    0.000000
     new conv_thr            =            2.6E-12 Ry

     new unit-cell volume =   1434.10514 a.u.^3 (   212.51246 Ang^3 )
     density =      2.61002 g/cm^3

CELL_PARAMETERS (alat= 12.64020058)
   1.000100062   0.000000000   0.000000000
   0.000000000   1.025649116   0.000000000
   0.000000000   0.000000000   0.692272103

ATOMIC_POSITIONS (crystal)
Ba               0.5000000000        0.5000000000        0.5001036998
Ba               0.0000000000        0.0000000000        0.9998963002
B                0.6102675219        0.2392477501        0.0000609900
B                0.3897324781        0.7607522499        0.0000609900
B                0.1102675219        0.2607522499        0.4999390100
B                0.8897324781        0.7392477501        0.4999390100
H                0.4343673745        0.2920927449        0.0002240695
H                0.5656326255        0.7079072551        0.0002240695
H                0.9343673745        0.2079072551        0.4997759305
H                0.0656326255        0.7920927449        0.4997759305
H                0.7218805333        0.3833536770       -0.0000062891
H                0.2781194667        0.6166463230       -0.0000062891
H                0.2218805333        0.1166463230        0.5000062891
H                0.7781194667        0.8833536770        0.5000062891
H                0.6392279087        0.1422465854        0.7808355314
H                0.3607720913        0.8577534146        0.7808355314
H                0.1392279087        0.3577534146        0.7191644686
H                0.8607720913        0.6422465854        0.7191644686
H                0.3605674099        0.8577989260        0.2191843013
H                0.6394325901        0.1422010740        0.2191843013
H                0.8605674099        0.6422010740        0.2808156987
H                0.1394325901        0.3577989260        0.2808156987



     Writing config-only to output data dir ./pwscf.save/ :
     XML data file
     NEW-OLD atomic charge density approx. for the potential

     total cpu time spent up to now is      412.2 secs

     Self-consistent Calculation

     iteration #  1     ecut=   100.00 Ry     beta= 0.70
     Davidson diagonalization with overlap
     ethr =  1.00E-06,  avg # of iterations =  2.0

     Threshold (ethr) on eigenvalues was too large:
     Diagonalizing with lowered threshold

     Davidson diagonalization with overlap
     ethr =  2.86E-08,  avg # of iterations =  2.0

     total cpu time spent up to now is      441.0 secs

     total energy              =    -156.47482240 Ry
     estimated scf accuracy    <       0.00001782 Ry

     iteration #  2     ecut=   100.00 Ry     beta= 0.70
     Davidson diagonalization with overlap
     ethr =  3.71E-08,  avg # of iterations =  2.0

     total cpu time spent up to now is      456.5 secs

     total energy              =    -156.47482745 Ry
     estimated scf accuracy    <       0.00000361 Ry

     iteration #  3     ecut=   100.00 Ry     beta= 0.70
     Davidson diagonalization with overlap
     ethr =  7.52E-09,  avg # of iterations =  2.0

     total cpu time spent up to now is      471.8 secs

     total energy              =    -156.47482794 Ry
     estimated scf accuracy    <       0.00000005 Ry

     iteration #  4     ecut=   100.00 Ry     beta= 0.70
     Davidson diagonalization with overlap
     ethr =  9.97E-11,  avg # of iterations =  3.0

     total cpu time spent up to now is      490.6 secs

     total energy              =    -156.47482796 Ry
     estimated scf accuracy    <       0.00000003 Ry

     iteration #  5     ecut=   100.00 Ry     beta= 0.70
     Davidson diagonalization with overlap
     ethr =  6.68E-11,  avg # of iterations =  2.0

     total cpu time spent up to now is      506.0 secs

     total energy              =    -156.47482796 Ry
     estimated scf accuracy    <          9.4E-10 Ry

     iteration #  6     ecut=   100.00 Ry     beta= 0.70
     Davidson diagonalization with overlap
     ethr =  1.96E-12,  avg # of iterations =  5.1

     total cpu time spent up to now is      525.2 secs

     total energy              =    -156.47482796 Ry
     estimated scf accuracy    <          3.6E-10 Ry

     iteration #  7     ecut=   100.00 Ry     beta= 0.70
     Davidson diagonalization with overlap
     ethr =  7.42E-13,  avg # of iterations =  3.2

     total cpu time spent up to now is      541.4 secs

     total energy              =    -156.47482796 Ry
     estimated scf accuracy    <          6.6E-12 Ry

     iteration #  8     ecut=   100.00 Ry     beta= 0.70
     Davidson diagonalization with overlap
     ethr =  1.00E-13,  avg # of iterations =  4.0

     total cpu time spent up to now is      557.8 secs

     End of self-consistent calculation

          k = 0.0000 0.0000 0.0000 ( 24211 PWs)   bands (ev):

   -23.8299 -23.8206  -9.3904  -9.2991  -9.0969  -9.0565  -9.0270  -8.9612
    -6.0052  -5.0442  -4.3456  -4.1981  -1.7012  -0.7850  -0.7109  -0.3650
     0.0201   0.0411   0.0885   0.2084   0.3759   0.7891   0.8050   0.8468

          k = 0.0000 0.0000 0.3611 ( 24222 PWs)   bands (ev):

   -23.8218 -23.8152  -9.2914  -9.2906  -9.2657  -9.2296  -9.0781  -9.0559
    -5.4899  -4.7747  -4.5252  -4.4323  -1.3118  -1.0541  -0.5967  -0.5464
    -0.3966  -0.2761   0.0949   0.3860   0.5820   0.6224   0.7007   0.8494

          k = 0.0000 0.0000-0.7223 ( 24208 PWs)   bands (ev):

   -23.8117 -23.8117  -9.5173  -9.5172  -9.1412  -9.1411  -9.0877  -9.0877
    -4.7640  -4.7635  -4.6894  -4.6888  -1.0736  -1.0731  -1.0606  -1.0591
     0.0059   0.0066   0.0867   0.0885   0.6657   0.6658   0.6797   0.6801

          k = 0.0000 0.2437 0.0000 ( 24213 PWs)   bands (ev):

   -23.8285 -23.8219  -9.3602  -9.2673  -9.1533  -9.0936  -9.0171  -8.9706
    -5.8000  -4.9508  -4.6400  -4.3321  -1.3313  -0.8989  -0.8615  -0.0777
    -0.0618  -0.0427   0.2557   0.3795   0.4585   0.4687   0.6999   0.7762

          k = 0.0000 0.2437 0.3611 ( 24215 PWs)   bands (ev):

   -23.8208 -23.8162  -9.3387  -9.2980  -9.2141  -9.2002  -9.0879  -9.0789
    -5.3826  -4.8512  -4.5676  -4.4727  -1.1194  -1.0787  -0.8828  -0.3046
    -0.2608  -0.0674  -0.0525   0.4393   0.5144   0.5637   0.6689   0.7264

          k = 0.0000 0.2437-0.7223 ( 24196 PWs)   bands (ev):

   -23.8117 -23.8117  -9.5315  -9.5314  -9.1217  -9.1217  -9.0868  -9.0868
    -5.0591  -5.0591  -4.3823  -4.3823  -1.1981  -1.1975  -0.8791  -0.8783
     0.0821   0.0823   0.1272   0.1288   0.4897   0.4897   0.6741   0.6743

          k = 0.0000-0.4875 0.0000 ( 24190 PWs)   bands (ev):

   -23.8252 -23.8252  -9.2743  -9.2743  -9.1780  -9.1780  -8.9936  -8.9936
    -5.2878  -5.2878  -4.6281  -4.6281  -1.0226  -1.0226  -0.3874  -0.3874
    -0.1438  -0.1438   0.3706   0.3706   0.5060   0.5060   0.6297   0.6297

          k = 0.0000-0.4875 0.3611 ( 24226 PWs)   bands (ev):

   -23.8185 -23.8185  -9.3380  -9.3380  -9.1550  -9.1550  -9.1193  -9.1193
    -5.1154  -5.1154  -4.5464  -4.5464  -1.0623  -1.0623  -0.6475  -0.6475
    -0.0144  -0.0144   0.2724   0.2724   0.4268   0.4268   0.6439   0.6439

          k = 0.0000-0.4875-0.7223 ( 24212 PWs)   bands (ev):

   -23.8117 -23.8117  -9.5444  -9.5444  -9.1053  -9.1053  -9.0839  -9.0839
    -5.1933  -5.1933  -4.2364  -4.2364  -1.2905  -1.2905  -0.6274  -0.6274
     0.0037   0.0037   0.2033   0.2033   0.2925   0.2925   0.7114   0.7114

          k = 0.2500 0.0000 0.0000 ( 24208 PWs)   bands (ev):

   -23.8285 -23.8219  -9.3500  -9.2798  -9.1424  -9.1115  -9.0171  -8.9706
    -5.8088  -5.0739  -4.3881  -4.3582  -1.5066  -0.6380  -0.6228  -0.4927
     0.0628   0.1000   0.1662   0.2318   0.3325   0.3573   0.7526   0.7901

          k = 0.2500 0.0000 0.3611 ( 24217 PWs)   bands (ev):

   -23.8208 -23.8161  -9.3293  -9.3103  -9.2440  -9.1753  -9.1048  -9.0663
    -5.3374  -4.7574  -4.5662  -4.5592  -1.2821  -1.0358  -0.8880  -0.3554
    -0.3407  -0.0615   0.1679   0.3053   0.4459   0.5768   0.7717   0.8002

          k = 0.2500 0.0000-0.7223 ( 24264 PWs)   bands (ev):

   -23.8117 -23.8117  -9.5365  -9.5363  -9.1267  -9.1267  -9.0842  -9.0842
    -4.8538  -4.8534  -4.5676  -4.5672  -1.5508  -1.5503  -0.6090  -0.6087
    -0.0005  -0.0001   0.3374   0.3389   0.4651   0.4651   0.7126   0.7130

          k = 0.2500 0.2437 0.0000 ( 24201 PWs)   bands (ev):

   -23.8275 -23.8229  -9.3791  -9.2546  -9.1973  -9.0635  -9.0100  -8.9771
    -5.6637  -5.0312  -4.6376  -4.3914  -1.2124  -0.8720  -0.6550  -0.1880
    -0.1159  -0.0669   0.2402   0.3892   0.4040   0.4863   0.5556   0.7058

          k = 0.2500 0.2437 0.3611 ( 24212 PWs)   bands (ev):

   -23.8201 -23.8168  -9.3319  -9.2903  -9.2833  -9.1544  -9.1162  -9.0592
    -5.2475  -4.7979  -4.6551  -4.5518  -1.2450  -1.0007  -0.9053  -0.3432
    -0.1817  -0.0022   0.1012   0.3253   0.4246   0.5392   0.6919   0.7783

          k = 0.2500 0.2437-0.7223 ( 24238 PWs)   bands (ev):

   -23.8117 -23.8117  -9.5437  -9.5190  -9.1493  -9.1072  -9.0921  -9.0847
    -5.0704  -4.8823  -4.5309  -4.3373  -1.5268  -1.4434  -0.6812  -0.5706
    -0.0504  -0.0472   0.3074   0.3736   0.4785   0.5242   0.6602   0.6908

          k = 0.2500-0.4875 0.0000 ( 24214 PWs)   bands (ev):

   -23.8252 -23.8252  -9.3528  -9.3528  -9.0999  -9.0999  -8.9933  -8.9933
    -5.2929  -5.2929  -4.6119  -4.6119  -0.9273  -0.9273  -0.3975  -0.3975
    -0.1830  -0.1830   0.3012   0.3012   0.5449   0.5449   0.5633   0.5633

          k = 0.2500-0.4875 0.3611 ( 24208 PWs)   bands (ev):

   -23.8184 -23.8184  -9.3261  -9.3261  -9.2202  -9.2202  -9.0739  -9.0739
    -5.0239  -5.0239  -4.6178  -4.6178  -1.1532  -1.1532  -0.5717  -0.5717
    -0.0381  -0.0381   0.2913   0.2913   0.4374   0.4374   0.6638   0.6638

          k = 0.2500-0.4875-0.7223 ( 24216 PWs)   bands (ev):

   -23.8117 -23.8117  -9.5274  -9.5274  -9.1306  -9.1306  -9.0908  -9.0908
    -5.0806  -5.0806  -4.3190  -4.3190  -1.4121  -1.4121  -0.6896  -0.6896
     0.0669   0.0669   0.1964   0.1964   0.5170   0.5170   0.6790   0.6790

          k =-0.4999 0.0000 0.0000 ( 24228 PWs)   bands (ev):

   -23.8252 -23.8252  -9.2507  -9.2507  -9.2109  -9.2109  -8.9937  -8.9937
    -5.3692  -5.3692  -4.4593  -4.4593  -1.0768  -1.0768  -0.2700  -0.2700
     0.1029   0.1029   0.1173   0.1173   0.2122   0.2122   0.6389   0.6389

          k =-0.4999 0.0000 0.3611 ( 24268 PWs)   bands (ev):

   -23.8184 -23.8184  -9.3421  -9.3421  -9.1780  -9.1780  -9.1041  -9.1041
    -4.9798  -4.9798  -4.6296  -4.6296  -1.2061  -1.2061  -0.6332  -0.6332
    -0.0370  -0.0370   0.1576   0.1576   0.5401   0.5401   0.7584   0.7584

          k =-0.4999 0.0000-0.7223 ( 24224 PWs)   bands (ev):

   -23.8117 -23.8117  -9.5541  -9.5541  -9.1150  -9.1150  -9.0793  -9.0793
    -4.8995  -4.8995  -4.4870  -4.4870  -1.7665  -1.7665  -0.3067  -0.3067
    -0.0050  -0.0050   0.1659   0.1659   0.6561   0.6561   0.6697   0.6697

          k =-0.4999 0.2437 0.0000 ( 24158 PWs)   bands (ev):

   -23.8252 -23.8252  -9.3512  -9.3512  -9.1061  -9.1061  -8.9933  -8.9933
    -5.3369  -5.3369  -4.5243  -4.5243  -0.9679  -0.9679  -0.2764  -0.2764
    -0.1148  -0.1148   0.0772   0.0772   0.4531   0.4531   0.6183   0.6183

          k =-0.4999 0.2437 0.3611 ( 24232 PWs)   bands (ev):

   -23.8184 -23.8184  -9.3288  -9.3288  -9.2247  -9.2247  -9.0727  -9.0727
    -4.9362  -4.9362  -4.6790  -4.6790  -1.2115  -1.2115  -0.6046  -0.6046
    -0.0021  -0.0021   0.2050   0.2050   0.5324   0.5324   0.6886   0.6886

          k =-0.4999 0.2437-0.7223 ( 24248 PWs)   bands (ev):

   -23.8117 -23.8117  -9.5327  -9.5327  -9.1334  -9.1334  -9.0900  -9.0900
    -4.9168  -4.9168  -4.4611  -4.4611  -1.6616  -1.6616  -0.5208  -0.5208
     0.0402   0.0402   0.2399   0.2399   0.5906   0.5906   0.7324   0.7324

          k =-0.4999-0.4875 0.0000 ( 24184 PWs)   bands (ev):

   -23.8252 -23.8252  -9.3988  -9.3988  -9.0542  -9.0542  -8.9929  -8.9929
    -5.2998  -5.2998  -4.5929  -4.5929  -0.8123  -0.8123  -0.4296  -0.4296
    -0.2183  -0.2183   0.2685   0.2685   0.4608   0.4608   0.5800   0.5800

          k =-0.4999-0.4875 0.3611 ( 24244 PWs)   bands (ev):

   -23.8184 -23.8184  -9.3025  -9.3025  -9.2714  -9.2714  -9.0542  -9.0542
    -4.8640  -4.8640  -4.7566  -4.7566  -1.1993  -1.1993  -0.6446  -0.6446
     0.1527   0.1527   0.2921   0.2921   0.4387   0.4387   0.5953   0.5953

          k =-0.4999-0.4875-0.7223 ( 24240 PWs)   bands (ev):

   -23.8116 -23.8116  -9.5083  -9.5083  -9.1582  -9.1582  -9.0972  -9.0972
    -4.9330  -4.9330  -4.4359  -4.4359  -1.5009  -1.5009  -0.8190  -0.8190
     0.2681   0.2681   0.3146   0.3146   0.4607   0.4607   0.6983   0.6983

     highest occupied level (ev):     0.8494

!    total energy              =    -156.47482796 Ry
     estimated scf accuracy    <          5.1E-13 Ry

     The total energy is the sum of the following terms:
     one-electron contribution =     -21.84580002 Ry
     hartree contribution      =      25.38711796 Ry
     xc contribution           =     -49.13274244 Ry
     ewald contribution        =    -110.88340345 Ry

     convergence has been achieved in   8 iterations

     Forces acting on atoms (cartesian axes, Ry/au):

     atom    1 type  2   force =     0.00000000    0.00000000    0.00000596
     atom    2 type  2   force =     0.00000000    0.00000000   -0.00000596
     atom    3 type  1   force =     0.00004822    0.00010007   -0.00000872
     atom    4 type  1   force =    -0.00004822   -0.00010007   -0.00000872
     atom    5 type  1   force =     0.00004822   -0.00010007    0.00000872
     atom    6 type  1   force =    -0.00004822    0.00010007    0.00000872
     atom    7 type  3   force =     0.00006693    0.00003949   -0.00001864
     atom    8 type  3   force =    -0.00006693   -0.00003949   -0.00001864
     atom    9 type  3   force =     0.00006693   -0.00003949    0.00001864
     atom   10 type  3   force =    -0.00006693    0.00003949    0.00001864
     atom   11 type  3   force =    -0.00002559    0.00008841    0.00000338
     atom   12 type  3   force =     0.00002559   -0.00008841    0.00000338
     atom   13 type  3   force =    -0.00002559   -0.00008841   -0.00000338
     atom   14 type  3   force =     0.00002559    0.00008841   -0.00000338
     atom   15 type  3   force =     0.00007023    0.00005300   -0.00000531
     atom   16 type  3   force =    -0.00007023   -0.00005300   -0.00000531
     atom   17 type  3   force =     0.00007023   -0.00005300    0.00000531
     atom   18 type  3   force =    -0.00007023    0.00005300    0.00000531
     atom   19 type  3   force =    -0.00003128   -0.00006490   -0.00000026
     atom   20 type  3   force =     0.00003128    0.00006490   -0.00000026
     atom   21 type  3   force =    -0.00003128    0.00006490    0.00000026
     atom   22 type  3   force =     0.00003128   -0.00006490    0.00000026

     Total force =     0.000401     Total SCF correction =     0.000000


     Computing stress (Cartesian axis) and pressure

          total   stress  (Ry/bohr**3)                   (kbar)     P=       -1.34
  -0.00000853   0.00000000   0.00000000           -1.26        0.00        0.00
   0.00000000  -0.00000856   0.00000000            0.00       -1.26        0.00
   0.00000000   0.00000000  -0.00001029            0.00        0.00       -1.51

     Volume is kept fixed: isostatic pressure set to zero
     Energy error            =      1.5E-05 Ry
     Gradient error          =      1.0E-04 Ry/Bohr
     Cell gradient error     =      1.7E-01 kbar

     number of scf cycles    =   3
     number of bfgs steps    =   2

     enthalpy           old  =    -156.4748124749 Ry
     enthalpy           new  =    -156.4748279643 Ry

     CASE: enthalpy          _new < enthalpy          _old

     new trust radius        =       0.0002535291 bohr
ibrav =      8
 celldm(1) =     12.64168284
 celldm(2) =      1.02554554
 celldm(3) =      0.69216777
Input lattice vectors:
     1.00011727     0.00000000     0.00000000
     0.00000000     1.02566580     0.00000000
     0.00000000     0.00000000     0.69224893
New lattice vectors in INITIAL alat:
     1.00011727     0.00000000     0.00000000
     0.00000000     1.02566580     0.00000000
     0.00000000     0.00000000     0.69224893
New lattice vectors in NEW alat (for information only):
     1.00000000     0.00000000     0.00000000
     0.00000000     1.02554554     0.00000000
     0.00000000     0.00000000     0.69216777
Discrepancy in bohr =     0.000000    0.000000    0.000000
     new conv_thr            =            1.5E-12 Ry

     new unit-cell volume =   1434.10514 a.u.^3 (   212.51246 Ang^3 )
     density =      2.61002 g/cm^3

CELL_PARAMETERS (alat= 12.64020058)
   1.000117265   0.000000000   0.000000000
   0.000000000   1.025665801   0.000000000
   0.000000000   0.000000000   0.692248934

ATOMIC_POSITIONS (crystal)
Ba               0.5000000000        0.5000000000        0.5001044906
Ba               0.0000000000        0.0000000000        0.9998955094
B                0.6102716866        0.2392566428        0.0000598693
B                0.3897283134        0.7607433572        0.0000598693
B                0.1102716866        0.2607433572        0.4999401307
B                0.8897283134        0.7392566428        0.4999401307
H                0.4343776504        0.2920948100        0.0002217296
H                0.5656223496        0.7079051900        0.0002217296
H                0.9343776504        0.2079051900        0.4997782704
H                0.0656223496        0.7920948100        0.4997782704
H                0.7218752469        0.3833572253       -0.0000058504
H                0.2781247531        0.6166427747       -0.0000058504
H                0.2218752469        0.1166427747        0.5000058504
H                0.7781247531        0.8833572253        0.5000058504
H                0.6392333160        0.1422535114        0.7808408154
H                0.3607666840        0.8577464886        0.7808408154
H                0.1392333160        0.3577464886        0.7191591846
H                0.8607666840        0.6422535114        0.7191591846
H                0.3605654369        0.8577909584        0.2191782921
H                0.6394345631        0.1422090416        0.2191782921
H                0.8605654369        0.6422090416        0.2808217079
H                0.1394345631        0.3577909584        0.2808217079



     Writing config-only to output data dir ./pwscf.save/ :
     XML data file
     NEW-OLD atomic charge density approx. for the potential

     total cpu time spent up to now is      588.5 secs

     Self-consistent Calculation

     iteration #  1     ecut=   100.00 Ry     beta= 0.70
     Davidson diagonalization with overlap
     ethr =  1.00E-06,  avg # of iterations =  1.0

     Threshold (ethr) on eigenvalues was too large:
     Diagonalizing with lowered threshold

     Davidson diagonalization with overlap
     ethr =  2.42E-11,  avg # of iterations =  4.1

     total cpu time spent up to now is      622.6 secs

     total energy              =    -156.47482820 Ry
     estimated scf accuracy    <       0.00000004 Ry

     iteration #  2     ecut=   100.00 Ry     beta= 0.70
     Davidson diagonalization with overlap
     ethr =  7.66E-11,  avg # of iterations =  2.0

     total cpu time spent up to now is      638.0 secs

     total energy              =    -156.47482821 Ry
     estimated scf accuracy    <          5.0E-09 Ry

     iteration #  3     ecut=   100.00 Ry     beta= 0.70
     Davidson diagonalization with overlap
     ethr =  1.05E-11,  avg # of iterations =  2.0

     total cpu time spent up to now is      653.3 secs

     total energy              =    -156.47482821 Ry
     estimated scf accuracy    <          1.0E-10 Ry

     iteration #  4     ecut=   100.00 Ry     beta= 0.70
     Davidson diagonalization with overlap
     ethr =  2.07E-13,  avg # of iterations =  3.8

     total cpu time spent up to now is      673.5 secs

     total energy              =    -156.47482821 Ry
     estimated scf accuracy    <          2.2E-11 Ry

     iteration #  5     ecut=   100.00 Ry     beta= 0.70
     Davidson diagonalization with overlap
     ethr =  1.00E-13,  avg # of iterations =  2.2

     total cpu time spent up to now is      688.3 secs

     End of self-consistent calculation

          k = 0.0000 0.0000 0.0000 ( 24211 PWs)   bands (ev):

   -23.8299 -23.8206  -9.3905  -9.2992  -9.0970  -9.0565  -9.0270  -8.9612
    -6.0053  -5.0445  -4.3458  -4.1983  -1.7014  -0.7851  -0.7109  -0.3654
     0.0201   0.0408   0.0887   0.2084   0.3760   0.7888   0.8048   0.8464

          k = 0.0000 0.0000 0.3611 ( 24222 PWs)   bands (ev):

   -23.8218 -23.8152  -9.2915  -9.2907  -9.2658  -9.2296  -9.0782  -9.0559
    -5.4900  -4.7748  -4.5255  -4.4326  -1.3118  -1.0542  -0.5968  -0.5465
    -0.3966  -0.2761   0.0948   0.3859   0.5818   0.6220   0.7005   0.8490

          k = 0.0000 0.0000-0.7223 ( 24208 PWs)   bands (ev):

   -23.8117 -23.8117  -9.5175  -9.5173  -9.1412  -9.1411  -9.0877  -9.0877
    -4.7640  -4.7636  -4.6897  -4.6892  -1.0736  -1.0730  -1.0607  -1.0592
     0.0057   0.0064   0.0865   0.0883   0.6654   0.6654   0.6795   0.6799

          k = 0.0000 0.2437 0.0000 ( 24213 PWs)   bands (ev):

   -23.8285 -23.8220  -9.3602  -9.2673  -9.1533  -9.0936  -9.0171  -8.9706
    -5.8002  -4.9511  -4.6402  -4.3324  -1.3315  -0.8990  -0.8616  -0.0776
    -0.0617  -0.0430   0.2554   0.3795   0.4581   0.4688   0.6997   0.7760

          k = 0.0000 0.2437 0.3611 ( 24215 PWs)   bands (ev):

   -23.8208 -23.8162  -9.3388  -9.2981  -9.2142  -9.2003  -9.0880  -9.0789
    -5.3827  -4.8514  -4.5679  -4.4730  -1.1195  -1.0788  -0.8830  -0.3046
    -0.2608  -0.0676  -0.0526   0.4391   0.5142   0.5634   0.6687   0.7262

          k = 0.0000 0.2437-0.7223 ( 24196 PWs)   bands (ev):

   -23.8117 -23.8117  -9.5316  -9.5315  -9.1217  -9.1217  -9.0868  -9.0868
    -5.0593  -5.0593  -4.3825  -4.3825  -1.1982  -1.1976  -0.8790  -0.8782
     0.0819   0.0821   0.1270   0.1286   0.4895   0.4895   0.6737   0.6739

          k = 0.0000-0.4875 0.0000 ( 24190 PWs)   bands (ev):

   -23.8252 -23.8252  -9.2743  -9.2743  -9.1781  -9.1781  -8.9937  -8.9937
    -5.2881  -5.2881  -4.6283  -4.6283  -1.0228  -1.0228  -0.3877  -0.3877
    -0.1437  -0.1437   0.3702   0.3702   0.5060   0.5060   0.6295   0.6295

          k = 0.0000-0.4875 0.3611 ( 24226 PWs)   bands (ev):

   -23.8185 -23.8185  -9.3381  -9.3381  -9.1551  -9.1551  -9.1193  -9.1193
    -5.1156  -5.1156  -4.5466  -4.5466  -1.0624  -1.0624  -0.6476  -0.6476
    -0.0145  -0.0145   0.2723   0.2723   0.4264   0.4264   0.6437   0.6437

          k = 0.0000-0.4875-0.7223 ( 24212 PWs)   bands (ev):

   -23.8117 -23.8117  -9.5445  -9.5445  -9.1053  -9.1053  -9.0839  -9.0839
    -5.1935  -5.1935  -4.2366  -4.2366  -1.2906  -1.2906  -0.6274  -0.6274
     0.0034   0.0034   0.2031   0.2031   0.2923   0.2923   0.7111   0.7111

          k = 0.2500 0.0000 0.0000 ( 24208 PWs)   bands (ev):

   -23.8285 -23.8219  -9.3501  -9.2799  -9.1425  -9.1115  -9.0171  -8.9706
    -5.8090  -5.0742  -4.3883  -4.3585  -1.5068  -0.6383  -0.6229  -0.4929
     0.0629   0.1000   0.1663   0.2314   0.3326   0.3571   0.7524   0.7896

          k = 0.2500 0.0000 0.3611 ( 24217 PWs)   bands (ev):

   -23.8208 -23.8161  -9.3294  -9.3104  -9.2441  -9.1753  -9.1048  -9.0663
    -5.3375  -4.7575  -4.5665  -4.5595  -1.2821  -1.0360  -0.8881  -0.3555
    -0.3409  -0.0615   0.1677   0.3051   0.4458   0.5766   0.7713   0.8000

          k = 0.2500 0.0000-0.7223 ( 24264 PWs)   bands (ev):

   -23.8117 -23.8117  -9.5366  -9.5365  -9.1267  -9.1267  -9.0842  -9.0842
    -4.8541  -4.8537  -4.5677  -4.5674  -1.5508  -1.5503  -0.6090  -0.6087
    -0.0007  -0.0003   0.3372   0.3387   0.4648   0.4649   0.7124   0.7128

          k = 0.2500 0.2437 0.0000 ( 24201 PWs)   bands (ev):

   -23.8276 -23.8229  -9.3791  -9.2547  -9.1973  -9.0635  -9.0100  -8.9771
    -5.6639  -5.0315  -4.6378  -4.3916  -1.2127  -0.8722  -0.6551  -0.1882
    -0.1158  -0.0668   0.2399   0.3892   0.4037   0.4863   0.5553   0.7055

          k = 0.2500 0.2437 0.3611 ( 24212 PWs)   bands (ev):

   -23.8201 -23.8168  -9.3319  -9.2903  -9.2833  -9.1545  -9.1162  -9.0593
    -5.2476  -4.7981  -4.6554  -4.5521  -1.2450  -1.0007  -0.9054  -0.3433
    -0.1818  -0.0023   0.1010   0.3252   0.4243   0.5390   0.6917   0.7780

          k = 0.2500 0.2437-0.7223 ( 24238 PWs)   bands (ev):

   -23.8117 -23.8117  -9.5438  -9.5192  -9.1493  -9.1072  -9.0921  -9.0847
    -5.0707  -4.8825  -4.5311  -4.3375  -1.5268  -1.4434  -0.6812  -0.5706
    -0.0506  -0.0475   0.3073   0.3735   0.4781   0.5240   0.6600   0.6904

          k = 0.2500-0.4875 0.0000 ( 24214 PWs)   bands (ev):

   -23.8252 -23.8252  -9.3528  -9.3528  -9.0999  -9.0999  -8.9933  -8.9933
    -5.2932  -5.2932  -4.6120  -4.6120  -0.9275  -0.9275  -0.3978  -0.3978
    -0.1829  -0.1829   0.3009   0.3009   0.5450   0.5450   0.5630   0.5630

          k = 0.2500-0.4875 0.3611 ( 24208 PWs)   bands (ev):

   -23.8185 -23.8185  -9.3262  -9.3262  -9.2203  -9.2203  -9.0739  -9.0739
    -5.0241  -5.0241  -4.6180  -4.6180  -1.1532  -1.1532  -0.5718  -0.5718
    -0.0382  -0.0382   0.2911   0.2911   0.4371   0.4371   0.6637   0.6637

          k = 0.2500-0.4875-0.7223 ( 24216 PWs)   bands (ev):

   -23.8117 -23.8117  -9.5276  -9.5276  -9.1306  -9.1306  -9.0908  -9.0908
    -5.0808  -5.0808  -4.3192  -4.3192  -1.4122  -1.4122  -0.6897  -0.6897
     0.0667   0.0667   0.1963   0.1963   0.5168   0.5168   0.6787   0.6787

          k =-0.4999 0.0000 0.0000 ( 24228 PWs)   bands (ev):

   -23.8252 -23.8252  -9.2507  -9.2507  -9.2109  -9.2109  -8.9937  -8.9937
    -5.3694  -5.3694  -4.4595  -4.4595  -1.0770  -1.0770  -0.2701  -0.2701
     0.1031   0.1031   0.1171   0.1171   0.2122   0.2122   0.6385   0.6385

          k =-0.4999 0.0000 0.3611 ( 24268 PWs)   bands (ev):

   -23.8185 -23.8185  -9.3422  -9.3422  -9.1781  -9.1781  -9.1041  -9.1041
    -4.9800  -4.9800  -4.6298  -4.6298  -1.2060  -1.2060  -0.6334  -0.6334
    -0.0371  -0.0371   0.1574   0.1574   0.5399   0.5399   0.7580   0.7580

          k =-0.4999 0.0000-0.7223 ( 24224 PWs)   bands (ev):

   -23.8117 -23.8117  -9.5542  -9.5542  -9.1150  -9.1150  -9.0793  -9.0793
    -4.8998  -4.8998  -4.4871  -4.4871  -1.7664  -1.7664  -0.3068  -0.3068
    -0.0051  -0.0051   0.1656   0.1656   0.6560   0.6560   0.6693   0.6693

          k =-0.4999 0.2437 0.0000 ( 24158 PWs)   bands (ev):

   -23.8252 -23.8252  -9.3512  -9.3512  -9.1061  -9.1061  -8.9933  -8.9933
    -5.3372  -5.3372  -4.5245  -4.5245  -0.9681  -0.9681  -0.2766  -0.2766
    -0.1147  -0.1147   0.0770   0.0770   0.4531   0.4531   0.6179   0.6179

          k =-0.4999 0.2437 0.3611 ( 24232 PWs)   bands (ev):

   -23.8184 -23.8184  -9.3288  -9.3288  -9.2248  -9.2248  -9.0727  -9.0727
    -4.9364  -4.9364  -4.6792  -4.6792  -1.2114  -1.2114  -0.6047  -0.6047
    -0.0022  -0.0022   0.2049   0.2049   0.5323   0.5323   0.6884   0.6884

          k =-0.4999 0.2437-0.7223 ( 24248 PWs)   bands (ev):

   -23.8117 -23.8117  -9.5329  -9.5329  -9.1334  -9.1334  -9.0900  -9.0900
    -4.9171  -4.9171  -4.4612  -4.4612  -1.6616  -1.6616  -0.5209  -0.5209
     0.0399   0.0399   0.2397   0.2397   0.5903   0.5903   0.7322   0.7322

          k =-0.4999-0.4875 0.0000 ( 24184 PWs)   bands (ev):

   -23.8252 -23.8252  -9.3988  -9.3988  -9.0543  -9.0543  -8.9929  -8.9929
    -5.3001  -5.3001  -4.5930  -4.5930  -0.8126  -0.8126  -0.4298  -0.4298
    -0.2182  -0.2182   0.2682   0.2682   0.4605   0.4605   0.5801   0.5801

          k =-0.4999-0.4875 0.3611 ( 24244 PWs)   bands (ev):

   -23.8184 -23.8184  -9.3025  -9.3025  -9.2715  -9.2715  -9.0542  -9.0542
    -4.8643  -4.8643  -4.7568  -4.7568  -1.1993  -1.1993  -0.6447  -0.6447
     0.1525   0.1525   0.2919   0.2919   0.4384   0.4384   0.5952   0.5952

          k =-0.4999-0.4875-0.7223 ( 24240 PWs)   bands (ev):

   -23.8116 -23.8116  -9.5085  -9.5085  -9.1582  -9.1582  -9.0972  -9.0972
    -4.9333  -4.9333  -4.4360  -4.4360  -1.5009  -1.5009  -0.8190  -0.8190
     0.2680   0.2680   0.3143   0.3143   0.4604   0.4604   0.6981   0.6981

     highest occupied level (ev):     0.8490

!    total energy              =    -156.47482821 Ry
     estimated scf accuracy    <          2.6E-13 Ry

     The total energy is the sum of the following terms:
     one-electron contribution =     -21.84975953 Ry
     hartree contribution      =      25.38908997 Ry
     xc contribution           =     -49.13306125 Ry
     ewald contribution        =    -110.88109741 Ry

     convergence has been achieved in   5 iterations

     Forces acting on atoms (cartesian axes, Ry/au):

     atom    1 type  2   force =     0.00000000    0.00000000    0.00000438
     atom    2 type  2   force =     0.00000000    0.00000000   -0.00000438
     atom    3 type  1   force =     0.00004489    0.00008437   -0.00000795
     atom    4 type  1   force =    -0.00004489   -0.00008437   -0.00000795
     atom    5 type  1   force =     0.00004489   -0.00008437    0.00000795
     atom    6 type  1   force =    -0.00004489    0.00008437    0.00000795
     atom    7 type  3   force =     0.00004382    0.00004473   -0.00001904
     atom    8 type  3   force =    -0.00004382   -0.00004473   -0.00001904
     atom    9 type  3   force =     0.00004382   -0.00004473    0.00001904
     atom   10 type  3   force =    -0.00004382    0.00004473    0.00001904
     atom   11 type  3   force =    -0.00000498    0.00011167    0.00000302
     atom   12 type  3   force =     0.00000498   -0.00011167    0.00000302
     atom   13 type  3   force =    -0.00000498   -0.00011167   -0.00000302
     atom   14 type  3   force =     0.00000498    0.00011167   -0.00000302
     atom   15 type  3   force =     0.00007337    0.00004466   -0.00003421
     atom   16 type  3   force =    -0.00007337   -0.00004466   -0.00003421
     atom   17 type  3   force =     0.00007337   -0.00004466    0.00003421
     atom   18 type  3   force =    -0.00007337    0.00004466    0.00003421
     atom   19 type  3   force =    -0.00003605   -0.00005512    0.00002949
     atom   20 type  3   force =     0.00003605    0.00005512    0.00002949
     atom   21 type  3   force =    -0.00003605    0.00005512   -0.00002949
     atom   22 type  3   force =     0.00003605   -0.00005512   -0.00002949

     Total force =     0.000399     Total SCF correction =     0.000000


     Computing stress (Cartesian axis) and pressure

          total   stress  (Ry/bohr**3)                   (kbar)     P=       -1.30
  -0.00000833   0.00000000   0.00000000           -1.23        0.00        0.00
   0.00000000  -0.00000836   0.00000000            0.00       -1.23        0.00
   0.00000000   0.00000000  -0.00000986            0.00        0.00       -1.45

     Volume is kept fixed: isostatic pressure set to zero
     Energy error            =      2.5E-07 Ry
     Gradient error          =      1.1E-04 Ry/Bohr
     Cell gradient error     =      1.5E-01 kbar

     number of scf cycles    =   4
     number of bfgs steps    =   3

     enthalpy           old  =    -156.4748279643 Ry
     enthalpy           new  =    -156.4748282112 Ry

     CASE: enthalpy          _new < enthalpy          _old


     WARNING: bfgs curvature condition failed, Theta= 0.978
     new trust radius        =       0.0003802435 bohr
ibrav =      8
 celldm(1) =     12.64201091
 celldm(2) =      1.02554380
 celldm(3) =      0.69211506
Input lattice vectors:
     1.00014322     0.00000000     0.00000000
     0.00000000     1.02569068     0.00000000
     0.00000000     0.00000000     0.69221418
New lattice vectors in INITIAL alat:
     1.00014322     0.00000000     0.00000000
     0.00000000     1.02569068     0.00000000
     0.00000000     0.00000000     0.69221418
New lattice vectors in NEW alat (for information only):
     1.00000000     0.00000000     0.00000000
     0.00000000     1.02554380     0.00000000
     0.00000000     0.00000000     0.69211506
Discrepancy in bohr =     0.000000    0.000000    0.000000
     new conv_thr            =            1.0E-12 Ry

     new unit-cell volume =   1434.10514 a.u.^3 (   212.51246 Ang^3 )
     density =      2.61002 g/cm^3

CELL_PARAMETERS (alat= 12.64020058)
   1.000143220   0.000000000   0.000000000
   0.000000000   1.025690677   0.000000000
   0.000000000   0.000000000   0.692214181

ATOMIC_POSITIONS (crystal)
Ba               0.5000000000        0.5000000000        0.5001055760
Ba               0.0000000000        0.0000000000        0.9998944240
B                0.6102783256        0.2392697626        0.0000581243
B                0.3897216744        0.7607302374        0.0000581243
B                0.1102783256        0.2607302374        0.4999418757
B                0.8897216744        0.7392697626        0.4999418757
H                0.4343895216        0.2920995894        0.0002178014
H                0.5656104784        0.7079004106        0.0002178014
H                0.9343895216        0.2079004106        0.4997821986
H                0.0656104784        0.7920995894        0.4997821986
H                0.7218704397        0.3833678771       -0.0000051778
H                0.2781295603        0.6166321229       -0.0000051778
H                0.2218704397        0.1166321229        0.5000051778
H                0.7781295603        0.8833678771        0.5000051778
H                0.6392430466        0.1422625636        0.7808417684
H                0.3607569534        0.8577374364        0.7808417684
H                0.1392430466        0.3577374364        0.7191582316
H                0.8607569534        0.6422625636        0.7191582316
H                0.3605612262        0.8577803227        0.2191762601
H                0.6394387738        0.1422196773        0.2191762601
H                0.8605612262        0.6422196773        0.2808237399
H                0.1394387738        0.3577803227        0.2808237399



     Writing config-only to output data dir ./pwscf.save/ :
     XML data file
     NEW-OLD atomic charge density approx. for the potential

     total cpu time spent up to now is      719.0 secs

     Self-consistent Calculation

     iteration #  1     ecut=   100.00 Ry     beta= 0.70
     Davidson diagonalization with overlap
     ethr =  1.00E-06,  avg # of iterations =  1.0

     Threshold (ethr) on eigenvalues was too large:
     Diagonalizing with lowered threshold

     Davidson diagonalization with overlap
     ethr =  3.90E-11,  avg # of iterations =  4.4

     total cpu time spent up to now is      753.9 secs

     total energy              =    -156.47482856 Ry
     estimated scf accuracy    <       0.00000005 Ry

     iteration #  2     ecut=   100.00 Ry     beta= 0.70
     Davidson diagonalization with overlap
     ethr =  1.00E-10,  avg # of iterations =  2.0

     total cpu time spent up to now is      769.2 secs

     total energy              =    -156.47482856 Ry
     estimated scf accuracy    <          3.4E-09 Ry

     iteration #  3     ecut=   100.00 Ry     beta= 0.70
     Davidson diagonalization with overlap
     ethr =  7.10E-12,  avg # of iterations =  2.0

     total cpu time spent up to now is      784.6 secs

     total energy              =    -156.47482857 Ry
     estimated scf accuracy    <          1.4E-10 Ry

     iteration #  4     ecut=   100.00 Ry     beta= 0.70
     Davidson diagonalization with overlap
     ethr =  2.90E-13,  avg # of iterations =  4.1

     total cpu time spent up to now is      802.6 secs

     total energy              =    -156.47482857 Ry
     estimated scf accuracy    <          1.6E-11 Ry

     iteration #  5     ecut=   100.00 Ry     beta= 0.70
     Davidson diagonalization with overlap
     ethr =  1.00E-13,  avg # of iterations =  2.7

     total cpu time spent up to now is      817.3 secs

     End of self-consistent calculation

          k = 0.0000 0.0000 0.0000 ( 24211 PWs)   bands (ev):

   -23.8299 -23.8205  -9.3905  -9.2992  -9.0970  -9.0565  -9.0269  -8.9612
    -6.0055  -5.0447  -4.3460  -4.1985  -1.7017  -0.7853  -0.7111  -0.3657
     0.0202   0.0404   0.0890   0.2084   0.3763   0.7886   0.8046   0.8459

          k = 0.0000 0.0000 0.3612 ( 24222 PWs)   bands (ev):

   -23.8218 -23.8151  -9.2914  -9.2908  -9.2658  -9.2295  -9.0781  -9.0559
    -5.4900  -4.7749  -4.5257  -4.4329  -1.3119  -1.0543  -0.5970  -0.5466
    -0.3966  -0.2760   0.0946   0.3858   0.5817   0.6217   0.7004   0.8486

          k = 0.0000 0.0000-0.7223 ( 24208 PWs)   bands (ev):

   -23.8117 -23.8117  -9.5177  -9.5175  -9.1411  -9.1410  -9.0877  -9.0876
    -4.7639  -4.7635  -4.6900  -4.6895  -1.0735  -1.0729  -1.0608  -1.0593
     0.0056   0.0063   0.0864   0.0882   0.6649   0.6650   0.6794   0.6797

          k = 0.0000 0.2437 0.0000 ( 24213 PWs)   bands (ev):

   -23.8285 -23.8219  -9.3602  -9.2673  -9.1533  -9.0936  -9.0171  -8.9706
    -5.8003  -4.9513  -4.6403  -4.3326  -1.3319  -0.8991  -0.8617  -0.0774
    -0.0614  -0.0434   0.2550   0.3796   0.4577   0.4689   0.6994   0.7758

          k = 0.0000 0.2437 0.3612 ( 24215 PWs)   bands (ev):

   -23.8208 -23.8161  -9.3388  -9.2981  -9.2142  -9.2002  -9.0880  -9.0789
    -5.3827  -4.8515  -4.5681  -4.4732  -1.1197  -1.0789  -0.8831  -0.3045
    -0.2609  -0.0678  -0.0526   0.4389   0.5140   0.5630   0.6686   0.7259

          k = 0.0000 0.2437-0.7223 ( 24196 PWs)   bands (ev):

   -23.8117 -23.8116  -9.5318  -9.5317  -9.1216  -9.1216  -9.0868  -9.0868
    -5.0594  -5.0594  -4.3826  -4.3826  -1.1984  -1.1977  -0.8790  -0.8782
     0.0817   0.0819   0.1269   0.1285   0.4893   0.4893   0.6733   0.6735

          k = 0.0000-0.4875 0.0000 ( 24190 PWs)   bands (ev):

   -23.8252 -23.8252  -9.2744  -9.2744  -9.1780  -9.1780  -8.9936  -8.9936
    -5.2882  -5.2882  -4.6284  -4.6284  -1.0229  -1.0229  -0.3880  -0.3880
    -0.1435  -0.1435   0.3698   0.3698   0.5061   0.5061   0.6292   0.6292

          k = 0.0000-0.4875 0.3612 ( 24226 PWs)   bands (ev):

   -23.8184 -23.8184  -9.3381  -9.3381  -9.1551  -9.1551  -9.1193  -9.1193
    -5.1157  -5.1157  -4.5468  -4.5468  -1.0625  -1.0625  -0.6478  -0.6478
    -0.0146  -0.0146   0.2723   0.2723   0.4259   0.4259   0.6436   0.6436

          k = 0.0000-0.4875-0.7223 ( 24212 PWs)   bands (ev):

   -23.8116 -23.8116  -9.5447  -9.5447  -9.1053  -9.1053  -9.0839  -9.0839
    -5.1937  -5.1937  -4.2367  -4.2367  -1.2907  -1.2907  -0.6273  -0.6273
     0.0032   0.0032   0.2030   0.2030   0.2921   0.2921   0.7107   0.7107

          k = 0.2500 0.0000 0.0000 ( 24208 PWs)   bands (ev):

   -23.8285 -23.8219  -9.3501  -9.2799  -9.1425  -9.1115  -9.0171  -8.9706
    -5.8092  -5.0744  -4.3885  -4.3586  -1.5071  -0.6386  -0.6230  -0.4931
     0.0632   0.1002   0.1664   0.2310   0.3328   0.3569   0.7521   0.7891

          k = 0.2500 0.0000 0.3612 ( 24217 PWs)   bands (ev):

   -23.8208 -23.8161  -9.3294  -9.3104  -9.2441  -9.1753  -9.1048  -9.0663
    -5.3376  -4.7576  -4.5668  -4.5597  -1.2822  -1.0361  -0.8881  -0.3556
    -0.3410  -0.0615   0.1675   0.3049   0.4458   0.5765   0.7709   0.7998

          k = 0.2500 0.0000-0.7223 ( 24264 PWs)   bands (ev):

   -23.8116 -23.8116  -9.5367  -9.5366  -9.1267  -9.1266  -9.0842  -9.0841
    -4.8543  -4.8539  -4.5678  -4.5674  -1.5508  -1.5503  -0.6091  -0.6088
    -0.0008  -0.0004   0.3371   0.3385   0.4645   0.4646   0.7121   0.7125

          k = 0.2500 0.2437 0.0000 ( 24201 PWs)   bands (ev):

   -23.8275 -23.8228  -9.3791  -9.2547  -9.1973  -9.0635  -9.0100  -8.9771
    -5.6641  -5.0318  -4.6379  -4.3918  -1.2130  -0.8724  -0.6553  -0.1884
    -0.1156  -0.0665   0.2396   0.3894   0.4033   0.4865   0.5551   0.7052

[...]
        14        H      tau(  14) = (   0.7790854   0.9067799   0.3458145  )
        15        H      tau(  15) = (   0.6411949   0.1464961   0.5398566  )
        16        H      tau(  16) = (   0.3600944   0.8789095   0.5398566  )
        17        H      tau(  17) = (   0.1405502   0.3662067   0.4975645  )
        18        H      tau(  18) = (   0.8607391   0.6591989   0.4975645  )
        19        H      tau(  19) = (   0.3600618   0.8789030   0.1517487  )
        20        H      tau(  20) = (   0.6412275   0.1465027   0.1517487  )
        21        H      tau(  21) = (   0.8607064   0.6592055   0.1940583  )
        22        H      tau(  22) = (   0.1405829   0.3662002   0.1940583  )

     number of k points=    27
                       cart. coord. in units 2pi/alat
        k(    1) = (   0.0000000   0.0000000   0.0000000), wk =   0.0312500
        k(    2) = (   0.0000000   0.0000000   0.3614733), wk =   0.0625000
        k(    3) = (   0.0000000   0.0000000  -0.7229465), wk =   0.0312500
        k(    4) = (   0.0000000   0.2438060   0.0000000), wk =   0.0625000
        k(    5) = (   0.0000000   0.2438060   0.3614733), wk =   0.1250000
        k(    6) = (   0.0000000   0.2438060  -0.7229465), wk =   0.0625000
        k(    7) = (   0.0000000  -0.4876119   0.0000000), wk =   0.0312500
        k(    8) = (   0.0000000  -0.4876119   0.3614733), wk =   0.0625000
        k(    9) = (   0.0000000  -0.4876119  -0.7229465), wk =   0.0312500
        k(   10) = (   0.2496781   0.0000000   0.0000000), wk =   0.0625000
        k(   11) = (   0.2496781   0.0000000   0.3614733), wk =   0.1250000
        k(   12) = (   0.2496781   0.0000000  -0.7229465), wk =   0.0625000
        k(   13) = (   0.2496781   0.2438060   0.0000000), wk =   0.1250000
        k(   14) = (   0.2496781   0.2438060   0.3614733), wk =   0.2500000
        k(   15) = (   0.2496781   0.2438060  -0.7229465), wk =   0.1250000
        k(   16) = (   0.2496781  -0.4876119   0.0000000), wk =   0.0625000
        k(   17) = (   0.2496781  -0.4876119   0.3614733), wk =   0.1250000
        k(   18) = (   0.2496781  -0.4876119  -0.7229465), wk =   0.0625000
        k(   19) = (  -0.4993562   0.0000000   0.0000000), wk =   0.0312500
        k(   20) = (  -0.4993562   0.0000000   0.3614733), wk =   0.0625000
        k(   21) = (  -0.4993562   0.0000000  -0.7229465), wk =   0.0312500
        k(   22) = (  -0.4993562   0.2438060   0.0000000), wk =   0.0625000
        k(   23) = (  -0.4993562   0.2438060   0.3614733), wk =   0.1250000
        k(   24) = (  -0.4993562   0.2438060  -0.7229465), wk =   0.0625000
        k(   25) = (  -0.4993562  -0.4876119   0.0000000), wk =   0.0312500
        k(   26) = (  -0.4993562  -0.4876119   0.3614733), wk =   0.0625000
        k(   27) = (  -0.4993562  -0.4876119  -0.7229465), wk =   0.0312500

     Dense  grid:   548031 G-vectors     FFT dimensions: ( 120, 120,  80)

     Smooth grid:   193729 G-vectors     FFT dimensions: (  90,  90,  60)

     Estimated max dynamical RAM per process >      91.60 MB

     Estimated total dynamical RAM >       2.15 GB

     Initial potential from superposition of free atoms

     starting charge      47.9682, renormalised to      48.0000
     Starting wfcs are   42 randomized atomic wfcs

     total cpu time spent up to now is     5496.5 secs

     Self-consistent Calculation

     iteration #  1     ecut=   100.00 Ry     beta= 0.70
     Davidson diagonalization with overlap
     ethr =  1.00E-06,  avg # of iterations = 11.0

     total cpu time spent up to now is     5545.2 secs

     total energy              =    -155.84823426 Ry
     estimated scf accuracy    <       2.22657999 Ry

     iteration #  2     ecut=   100.00 Ry     beta= 0.70
     Davidson diagonalization with overlap
     ethr =  4.64E-03,  avg # of iterations =  2.0

     total cpu time spent up to now is     5560.8 secs

     total energy              =    -156.40031893 Ry
     estimated scf accuracy    <       0.45831890 Ry

     iteration #  3     ecut=   100.00 Ry     beta= 0.70
     Davidson diagonalization with overlap
     ethr =  9.55E-04,  avg # of iterations =  2.0

     total cpu time spent up to now is     5576.3 secs

     total energy              =    -156.47208161 Ry
     estimated scf accuracy    <       0.00560261 Ry

     iteration #  4     ecut=   100.00 Ry     beta= 0.70
     Davidson diagonalization with overlap
     ethr =  1.17E-05,  avg # of iterations =  3.3

     total cpu time spent up to now is     5595.7 secs

     total energy              =    -156.47411031 Ry
     estimated scf accuracy    <       0.00218656 Ry

     iteration #  5     ecut=   100.00 Ry     beta= 0.70
     Davidson diagonalization with overlap
     ethr =  4.56E-06,  avg # of iterations =  3.5

     total cpu time spent up to now is     5612.2 secs

     total energy              =    -156.47474301 Ry
     estimated scf accuracy    <       0.00004907 Ry

     iteration #  6     ecut=   100.00 Ry     beta= 0.70
     Davidson diagonalization with overlap
     ethr =  1.02E-07,  avg # of iterations =  6.1

     total cpu time spent up to now is     5637.8 secs

     total energy              =    -156.47483566 Ry
     estimated scf accuracy    <       0.00001560 Ry

     iteration #  7     ecut=   100.00 Ry     beta= 0.70
     Davidson diagonalization with overlap
     ethr =  3.25E-08,  avg # of iterations =  2.7

     total cpu time spent up to now is     5653.9 secs

     total energy              =    -156.47483935 Ry
     estimated scf accuracy    <       0.00000008 Ry

     iteration #  8     ecut=   100.00 Ry     beta= 0.70
     Davidson diagonalization with overlap
     ethr =  1.68E-10,  avg # of iterations =  7.9

     total cpu time spent up to now is     5687.2 secs

     total energy              =    -156.47483969 Ry
     estimated scf accuracy    <       0.00000011 Ry

     iteration #  9     ecut=   100.00 Ry     beta= 0.70
     Davidson diagonalization with overlap
     ethr =  1.68E-10,  avg # of iterations =  2.0

     total cpu time spent up to now is     5702.7 secs

     total energy              =    -156.47483970 Ry
     estimated scf accuracy    <          4.3E-09 Ry

     iteration # 10     ecut=   100.00 Ry     beta= 0.70
     Davidson diagonalization with overlap
     ethr =  9.01E-12,  avg # of iterations =  4.4

     total cpu time spent up to now is     5721.6 secs

     total energy              =    -156.47483970 Ry
     estimated scf accuracy    <          1.6E-10 Ry

     iteration # 11     ecut=   100.00 Ry     beta= 0.70
     Davidson diagonalization with overlap
     ethr =  3.40E-13,  avg # of iterations =  6.3

     total cpu time spent up to now is     5749.0 secs

     total energy              =    -156.47483970 Ry
     estimated scf accuracy    <          3.6E-11 Ry

     iteration # 12     ecut=   100.00 Ry     beta= 0.70
     Davidson diagonalization with overlap
     ethr =  1.00E-13,  avg # of iterations =  3.0

     total cpu time spent up to now is     5766.2 secs

     End of self-consistent calculation

          k = 0.0000 0.0000 0.0000 ( 24203 PWs)   bands (ev):

   -23.8251 -23.8157  -9.3891  -9.2986  -9.0945  -9.0535  -9.0233  -8.9573
    -6.0078  -5.0467  -4.3464  -4.2037  -1.7062  -0.7852  -0.7117  -0.3658
     0.0131   0.0260   0.0916   0.1959   0.3775   0.7858   0.8011   0.8431

          k = 0.0000 0.0000 0.3615 ( 24234 PWs)   bands (ev):

   -23.8169 -23.8102  -9.2900  -9.2894  -9.2652  -9.2280  -9.0753  -9.0527
    -5.4887  -4.7732  -4.5284  -4.4387  -1.3134  -1.0616  -0.6125  -0.5470
    -0.3952  -0.2765   0.0941   0.3837   0.5799   0.6162   0.6933   0.8424

          k = 0.0000 0.0000-0.7229 ( 24204 PWs)   bands (ev):

   -23.8067 -23.8067  -9.5190  -9.5190  -9.1380  -9.1379  -9.0848  -9.0848
    -4.7591  -4.7591  -4.6957  -4.6956  -1.0748  -1.0747  -1.0722  -1.0721
     0.0070   0.0071   0.0867   0.0870   0.6566   0.6567   0.6765   0.6766

          k = 0.0000 0.2438 0.0000 ( 24217 PWs)   bands (ev):

   -23.8237 -23.8171  -9.3588  -9.2665  -9.1509  -9.0909  -9.0134  -8.9668
    -5.8027  -4.9555  -4.6390  -4.3365  -1.3382  -0.9015  -0.8617  -0.0802
    -0.0617  -0.0446   0.2442   0.3700   0.4553   0.4646   0.6965   0.7723

          k = 0.0000 0.2438 0.3615 ( 24222 PWs)   bands (ev):

   -23.8159 -23.8112  -9.3377  -9.2973  -9.2125  -9.1985  -9.0853  -9.0759
    -5.3815  -4.8500  -4.5708  -4.4783  -1.1222  -1.0860  -0.8909  -0.3069
    -0.2658  -0.0667  -0.0547   0.4354   0.5133   0.5570   0.6636   0.7203

          k = 0.0000 0.2438-0.7229 ( 24232 PWs)   bands (ev):

   -23.8067 -23.8067  -9.5331  -9.5331  -9.1185  -9.1185  -9.0839  -9.0839
    -5.0596  -5.0596  -4.3836  -4.3836  -1.2111  -1.2111  -0.8798  -0.8797
     0.0837   0.0838   0.1267   0.1269   0.4861   0.4861   0.6662   0.6663

          k = 0.0000-0.4876 0.0000 ( 24206 PWs)   bands (ev):

   -23.8204 -23.8204  -9.2728  -9.2728  -9.1760  -9.1760  -8.9899  -8.9899
    -5.2914  -5.2914  -4.6295  -4.6295  -1.0286  -1.0286  -0.3889  -0.3889
    -0.1437  -0.1437   0.3663   0.3663   0.4972   0.4972   0.6243   0.6243

          k = 0.0000-0.4876 0.3615 ( 24218 PWs)   bands (ev):

   -23.8135 -23.8135  -9.3371  -9.3371  -9.1532  -9.1532  -9.1165  -9.1165
    -5.1145  -5.1145  -4.5504  -4.5504  -1.0703  -1.0703  -0.6498  -0.6498
    -0.0202  -0.0202   0.2744   0.2744   0.4199   0.4199   0.6396   0.6396

          k = 0.0000-0.4876-0.7229 ( 24212 PWs)   bands (ev):

   -23.8066 -23.8066  -9.5460  -9.5460  -9.1021  -9.1021  -9.0811  -9.0811
    -5.1941  -5.1941  -4.2373  -4.2373  -1.3045  -1.3045  -0.6298  -0.6298
     0.0080   0.0080   0.2030   0.2030   0.2857   0.2857   0.7057   0.7057

          k = 0.2497 0.0000 0.0000 ( 24208 PWs)   bands (ev):

   -23.8237 -23.8171  -9.3486  -9.2788  -9.1401  -9.1086  -9.0135  -8.9668
    -5.8119  -5.0767  -4.3895  -4.3633  -1.5107  -0.6419  -0.6233  -0.4951
     0.0610   0.0969   0.1587   0.2190   0.3302   0.3576   0.7483   0.7856

          k = 0.2497 0.0000 0.3615 ( 24217 PWs)   bands (ev):

   -23.8159 -23.8112  -9.3285  -9.3092  -9.2423  -9.1736  -9.1020  -9.0632
    -5.3371  -4.7561  -4.5724  -4.5624  -1.2846  -1.0400  -0.8957  -0.3556
    -0.3410  -0.0652   0.1606   0.3006   0.4430   0.5743   0.7643   0.7932

          k = 0.2497 0.0000-0.7229 ( 24256 PWs)   bands (ev):

   -23.8066 -23.8066  -9.5380  -9.5380  -9.1235  -9.1235  -9.0812  -9.0812
    -4.8584  -4.8583  -4.5650  -4.5649  -1.5559  -1.5559  -0.6142  -0.6142
     0.0018   0.0018   0.3329   0.3331   0.4579   0.4580   0.7068   0.7069

          k = 0.2497 0.2438 0.0000 ( 24211 PWs)   bands (ev):

   -23.8227 -23.8180  -9.3778  -9.2532  -9.1952  -9.0607  -9.0063  -8.9733
    -5.6675  -5.0369  -4.6372  -4.3934  -1.2190  -0.8758  -0.6580  -0.1901
    -0.1175  -0.0675   0.2345   0.3812   0.3955   0.4807   0.5567   0.7020

          k = 0.2497 0.2438 0.3615 ( 24217 PWs)   bands (ev):

   -23.8152 -23.8118  -9.3309  -9.2896  -9.2813  -9.1526  -9.1135  -9.0561
    -5.2474  -4.7977  -4.6587  -4.5560  -1.2483  -1.0079  -0.9104  -0.3467
    -0.1849  -0.0061   0.0993   0.3244   0.4188   0.5350   0.6867   0.7725

          k = 0.2497 0.2438-0.7229 ( 24234 PWs)   bands (ev):

   -23.8066 -23.8066  -9.5453  -9.5208  -9.1460  -9.1040  -9.0891  -9.0818
    -5.0732  -4.8827  -4.5328  -4.3368  -1.5351  -1.4477  -0.6921  -0.5754
    -0.0470  -0.0458   0.3048   0.3738   0.4696   0.5188   0.6569   0.6831

          k = 0.2497-0.4876 0.0000 ( 24214 PWs)   bands (ev):

   -23.8203 -23.8203  -9.3514  -9.3514  -9.0974  -9.0974  -8.9895  -8.9895
    -5.2990  -5.2990  -4.6108  -4.6108  -0.9353  -0.9353  -0.4005  -0.4005
    -0.1832  -0.1832   0.2975   0.2975   0.5367   0.5367   0.5613   0.5613

          k = 0.2497-0.4876 0.3615 ( 24216 PWs)   bands (ev):

   -23.8135 -23.8135  -9.3250  -9.3250  -9.2186  -9.2186  -9.0710  -9.0710
    -5.0243  -5.0243  -4.6208  -4.6208  -1.1585  -1.1585  -0.5785  -0.5785
    -0.0420  -0.0420   0.2890   0.2890   0.4367   0.4367   0.6582   0.6582

          k = 0.2497-0.4876-0.7229 ( 24216 PWs)   bands (ev):

   -23.8066 -23.8066  -9.5291  -9.5291  -9.1272  -9.1272  -9.0879  -9.0879
    -5.0816  -5.0816  -4.3203  -4.3203  -1.4202  -1.4202  -0.6977  -0.6977
     0.0676   0.0676   0.1974   0.1974   0.5126   0.5126   0.6736   0.6736

          k =-0.4994 0.0000 0.0000 ( 24260 PWs)   bands (ev):

   -23.8203 -23.8203  -9.2493  -9.2493  -9.2084  -9.2084  -8.9899  -8.9899
    -5.3727  -5.3727  -4.4624  -4.4624  -1.0807  -1.0807  -0.2708  -0.2708
     0.1028   0.1028   0.1120   0.1120   0.2050   0.2050   0.6332   0.6332

          k =-0.4994 0.0000 0.3615 ( 24264 PWs)   bands (ev):

   -23.8135 -23.8135  -9.3411  -9.3411  -9.1760  -9.1760  -9.1015  -9.1015
    -4.9809  -4.9809  -4.6329  -4.6329  -1.2093  -1.2093  -0.6362  -0.6362
    -0.0385  -0.0385   0.1530   0.1530   0.5343   0.5343   0.7510   0.7510

          k =-0.4994 0.0000-0.7229 ( 24220 PWs)   bands (ev):

   -23.8066 -23.8066  -9.5555  -9.5555  -9.1119  -9.1119  -9.0762  -9.0762
    -4.9067  -4.9067  -4.4825  -4.4825  -1.7707  -1.7707  -0.3122  -0.3122
    -0.0016  -0.0016   0.1602   0.1602   0.6489   0.6489   0.6611   0.6611

          k =-0.4994 0.2438 0.0000 ( 24158 PWs)   bands (ev):

   -23.8203 -23.8203  -9.3497  -9.3497  -9.1036  -9.1036  -8.9895  -8.9895
    -5.3426  -5.3426  -4.5244  -4.5244  -0.9743  -0.9743  -0.2812  -0.2812
    -0.1158  -0.1158   0.0759   0.0759   0.4463   0.4463   0.6151   0.6151

          k =-0.4994 0.2438 0.3615 ( 24234 PWs)   bands (ev):

   -23.8135 -23.8135  -9.3275  -9.3275  -9.2231  -9.2231  -9.0698  -9.0698
    -4.9382  -4.9382  -4.6811  -4.6811  -1.2151  -1.2151  -0.6111  -0.6111
    -0.0006  -0.0006   0.1978   0.1978   0.5297   0.5297   0.6826   0.6826

          k =-0.4994 0.2438-0.7229 ( 24260 PWs)   bands (ev):

   -23.8066 -23.8066  -9.5343  -9.5343  -9.1301  -9.1301  -9.0870  -9.0870
    -4.9207  -4.9207  -4.4600  -4.4600  -1.6663  -1.6663  -0.5286  -0.5286
     0.0436   0.0436   0.2340   0.2340   0.5838   0.5838   0.7283   0.7283

          k =-0.4994-0.4876 0.0000 ( 24176 PWs)   bands (ev):

   -23.8203 -23.8203  -9.3974  -9.3974  -9.0515  -9.0515  -8.9891  -8.9891
    -5.3083  -5.3083  -4.5895  -4.5895  -0.8233  -0.8233  -0.4331  -0.4331
    -0.2188  -0.2188   0.2640   0.2640   0.4639   0.4639   0.5723   0.5723

          k =-0.4994-0.4876 0.3615 ( 24240 PWs)   bands (ev):

   -23.8135 -23.8135  -9.3003  -9.3003  -9.2709  -9.2709  -9.0511  -9.0511
    -4.8690  -4.8690  -4.7555  -4.7555  -1.2038  -1.2038  -0.6515  -0.6515
     0.1443   0.1443   0.2959   0.2959   0.4308   0.4308   0.5951   0.5951

          k =-0.4994-0.4876-0.7229 ( 24248 PWs)   bands (ev):

   -23.8066 -23.8066  -9.5102  -9.5102  -9.1547  -9.1547  -9.0942  -9.0942
    -4.9343  -4.9343  -4.4378  -4.4378  -1.5058  -1.5058  -0.8269  -0.8269
     0.2602   0.2602   0.3200   0.3200   0.4539   0.4539   0.6966   0.6966

     highest occupied level (ev):     0.8431

!    total energy              =    -156.47483970 Ry
     estimated scf accuracy    <          7.1E-13 Ry

     The total energy is the sum of the following terms:
     one-electron contribution =     -21.97712491 Ry
     hartree contribution      =      25.45277556 Ry
     xc contribution           =     -49.13678716 Ry
     ewald contribution        =    -110.81370319 Ry

     convergence has been achieved in  12 iterations

     Forces acting on atoms (cartesian axes, Ry/au):

     atom    1 type  2   force =     0.00000000    0.00000000    0.00000669
     atom    2 type  2   force =     0.00000000    0.00000000   -0.00000669
     atom    3 type  1   force =    -0.00000013   -0.00000137    0.00000443
     atom    4 type  1   force =     0.00000013    0.00000137    0.00000443
     atom    5 type  1   force =    -0.00000013    0.00000137   -0.00000443
     atom    6 type  1   force =     0.00000013   -0.00000137   -0.00000443
     atom    7 type  3   force =    -0.00000574   -0.00000924   -0.00000808
     atom    8 type  3   force =     0.00000574    0.00000924   -0.00000808
     atom    9 type  3   force =    -0.00000574    0.00000924    0.00000808
     atom   10 type  3   force =     0.00000574   -0.00000924    0.00000808
     atom   11 type  3   force =    -0.00000147    0.00000425   -0.00000447
     atom   12 type  3   force =     0.00000147   -0.00000425   -0.00000447
     atom   13 type  3   force =    -0.00000147   -0.00000425    0.00000447
     atom   14 type  3   force =     0.00000147    0.00000425    0.00000447
     atom   15 type  3   force =     0.00000243    0.00000291   -0.00000176
     atom   16 type  3   force =    -0.00000243   -0.00000291   -0.00000176
     atom   17 type  3   force =     0.00000243   -0.00000291    0.00000176
     atom   18 type  3   force =    -0.00000243    0.00000291    0.00000176
     atom   19 type  3   force =     0.00000175    0.00000659    0.00000747
     atom   20 type  3   force =    -0.00000175   -0.00000659    0.00000747
     atom   21 type  3   force =     0.00000175   -0.00000659   -0.00000747
     atom   22 type  3   force =    -0.00000175    0.00000659   -0.00000747

     Total force =     0.000039     Total SCF correction =     0.000000


     Computing stress (Cartesian axis) and pressure

          total   stress  (Ry/bohr**3)                   (kbar)     P=       -0.83
  -0.00000567   0.00000000   0.00000000           -0.83        0.00        0.00
   0.00000000  -0.00000558   0.00000000            0.00       -0.82        0.00
   0.00000000   0.00000000  -0.00000570            0.00        0.00       -0.84


     Writing all to output data dir ./pwscf.save/ :
     XML data file, charge density, pseudopotentials, collected wavefunctions

     init_run     :     18.84s CPU     20.55s WALL (       2 calls)
     electrons    :   4547.12s CPU   4583.27s WALL (      39 calls)
     update_pot   :      8.73s CPU      9.70s WALL (      37 calls)
     forces       :    122.35s CPU    123.87s WALL (      39 calls)
     stress       :   1045.63s CPU   1048.12s WALL (      39 calls)

     Called by init_run:
     wfcinit      :     15.18s CPU     15.34s WALL (       2 calls)
     potinit      :      0.72s CPU      1.25s WALL (       2 calls)
     hinit0       :      1.24s CPU      2.18s WALL (       2 calls)

     Called by electrons:
     c_bands      :   3978.70s CPU   4005.37s WALL (     271 calls)
     sum_band     :    489.94s CPU    495.28s WALL (     271 calls)
     v_of_rho     :     34.57s CPU     36.09s WALL (     273 calls)
     newd         :     47.03s CPU     47.79s WALL (     273 calls)
     mix_rho      :      3.46s CPU      3.81s WALL (     271 calls)

     Called by c_bands:
     init_us_2    :     97.20s CPU     98.40s WALL (   16794 calls)
     cegterg      :   3519.23s CPU   3544.41s WALL (    7317 calls)

     Called by *egterg:
     cdiaghg      :     47.47s CPU     47.80s WALL (   26397 calls)
     h_psi        :   2516.67s CPU   2537.49s WALL (   28449 calls)
     s_psi        :    452.62s CPU    454.50s WALL (   28449 calls)
     g_psi        :      8.58s CPU      8.62s WALL (   21078 calls)

     Called by h_psi:
     h_psi:calbec :    395.66s CPU    397.61s WALL (   28449 calls)
     vloc_psi     :   1659.24s CPU   1676.44s WALL (   28449 calls)
     add_vuspsi   :    454.03s CPU    455.84s WALL (   28449 calls)

     General routines
     calbec       :    783.44s CPU    786.55s WALL (   41031 calls)
     fft          :     28.52s CPU     31.96s WALL (    4520 calls)
     ffts         :      1.76s CPU      2.40s WALL (     544 calls)
     fftw         :   1705.27s CPU   1722.84s WALL ( 1225080 calls)
     interpolate  :      2.75s CPU      3.48s WALL (     273 calls)

     Parallel routines

     PWSCF        :      1h35m CPU      1h36m WALL


   This run was terminated on:  17: 7:16  11Jul2024            

=------------------------------------------------------------------------------=
   JOB DONE.
=------------------------------------------------------------------------------=
