
     Program PWSCF v.7.3.1 starts on 12Jul2024 at 15: 3:38 

     This program is part of the open-source Quantum ESPRESSO suite
     for quantum simulation of materials; please cite
         "P. Giannozzi et al., J. Phys.:Condens. Matter 21 395502 (2009);
         "P. Giannozzi et al., J. Phys.:Condens. Matter 29 465901 (2017);
         "P. Giannozzi et al., J. Chem. Phys. 152 154105 (2020);
          URL http://www.quantum-espresso.org", 
     in publications or presentations arising from this work. More details at
     http://www.quantum-espresso.org/quote

     Parallel version (MPI), running on    12 processors

     MPI processes distributed on     1 nodes
     61239 MiB available memory on the printing compute node when the environment starts

     Waiting for input...
     Reading input from standard input

     Current dimensions of program PWSCF are:
     Max number of different atomic species (ntypx) = 10
     Max number of k-points (npk) =  40000
     Max angular momentum in pseudopotentials (lmaxx) =  4

     R & G space division:  proc/nbgrp/npool/nimage =      12
     Subspace diagonalization in iterative solution of the eigenvalue problem:
     a serial algorithm will be used


     Parallelization info
     --------------------
     sticks:   dense  smooth     PW     G-vecs:    dense   smooth      PW
     Min         882     442    121                46782    16554    2393
     Max         883     443    123                46785    16555    2394
     Sum       10595    5311   1461               561405   198655   28721

     Using Slab Decomposition


     Title: 
     volume variation                                                           


     bravais-lattice index     =            8
     lattice parameter (alat)  =      12.7442  a.u.
     unit-cell volume          =    1469.7794 (a.u.)^3
     number of atoms/cell      =           22
     number of atomic types    =            3
     number of electrons       =        48.00
     number of Kohn-Sham states=           24
     kinetic-energy cutoff     =     100.0000  Ry
     charge density cutoff     =     800.0000  Ry
     scf convergence threshold =      1.0E-10
     mixing beta               =       0.7000
     number of iterations used =            8  plain     mixing
     energy convergence thresh.=      1.0E-05
     force convergence thresh. =      1.0E-05
     press convergence thresh. =      5.0E-01
     Exchange-correlation= PBESOL
                           (   1   4  10   8   0   0   0)
     nstep                     =          300


     celldm(1)=  12.744154  celldm(2)=   1.025571  celldm(3)=   0.692394
     celldm(4)=   0.000000  celldm(5)=   0.000000  celldm(6)=   0.000000

     crystal axes: (cart. coord. in units of alat)
               a(1) = (   1.000000   0.000000   0.000000 )  
               a(2) = (   0.000000   1.025571   0.000000 )  
               a(3) = (   0.000000   0.000000   0.692394 )  

     reciprocal axes: (cart. coord. in units 2 pi/alat)
               b(1) = (  1.000000  0.000000  0.000000 )  
               b(2) = (  0.000000  0.975067  0.000000 )  
               b(3) = (  0.000000  0.000000  1.444264 )  


     PseudoPot. # 1 for B  read from file:
     /home/mehlhorn/pseudos/b_pbesol_v1.4.uspp.F.UPF
     MD5 check sum: 369b69bef2c3aeed4453bd8b804fd6a8
     Pseudo is Ultrasoft + core correction, Zval =  3.0
     Generated by new atomic code, or converted to UPF format
     Using radial grid of  781 points,  4 beta functions with: 
                l(1) =   0
                l(2) =   0
                l(3) =   1
                l(4) =   1
     Q(r) pseudized with  8 coefficients,  rinner =    1.100   1.100   1.100


     PseudoPot. # 2 for Ba read from file:
     /home/mehlhorn/pseudos/Ba.nc.z_10.oncvpsp4.dojo.v4-sp.upf
     MD5 check sum: c10ed334bb677c0554edec7181ce9143
     Pseudo is Norm-conserving + core correction, Zval = 10.0
     Generated using ONCVPSP code by D. R. Hamann
     Using radial grid of 1938 points,  8 beta functions with: 
                l(1) =   0
                l(2) =   0
                l(3) =   1
                l(4) =   1
                l(5) =   2
                l(6) =   2
                l(7) =   3
                l(8) =   3

     PseudoPot. # 3 for H  read from file:
     /home/mehlhorn/pseudos/H_ONCV_PBEsol-1.0.upf
     MD5 check sum: 398ef8f67c0a7342c05c87c5e19ea467
     Pseudo is Norm-conserving, Zval =  1.0
     Generated using ONCVPSP code by D. R. Hamann
     Using radial grid of 1180 points,  2 beta functions with: 
                l(1) =   0
                l(2) =   0

     atomic species   valence    mass     pseudopotential
     B                 3.00    10.81100     B ( 1.00)
     Ba               10.00   137.32700     Ba( 1.00)
     H                 1.00     1.00794     H ( 1.00)

      4 Sym. Ops. (no inversion) found ( 2 have fractional translation)



   Cartesian axes

     site n.     atom                  positions (alat units)
         1        Ba     tau(   1) = (   0.5000000   0.5127855   0.3462657  )
         2        Ba     tau(   2) = (   0.0000000   0.0000000   0.6923255  )
         3        B      tau(   3) = (   0.6102570   0.2453190   0.0000455  )
         4        B      tau(   4) = (   0.3897430   0.7802519   0.0000455  )
         5        B      tau(   5) = (   0.1102570   0.2674665   0.3461516  )
         6        B      tau(   6) = (   0.8897430   0.7581045   0.3461516  )
         7        H      tau(   7) = (   0.4340973   0.2996264   0.0001599  )
         8        H      tau(   8) = (   0.5659027   0.7259445   0.0001599  )
         9        H      tau(   9) = (   0.9340973   0.2131590   0.3460372  )
        10        H      tau(  10) = (   0.0659027   0.8124119   0.3460372  )
        11        H      tau(  11) = (   0.7220603   0.3933629  -0.0000058  )
        12        H      tau(  12) = (   0.2779397   0.6322081  -0.0000058  )
        13        H      tau(  13) = (   0.2220603   0.1194226   0.3462029  )
        14        H      tau(  14) = (   0.7779397   0.9061483   0.3462029  )
        15        H      tau(  15) = (   0.6392499   0.1457279   0.5404125  )
        16        H      tau(  16) = (   0.3607501   0.8798430   0.5404125  )
        17        H      tau(  17) = (   0.1392499   0.3670576   0.4981787  )
        18        H      tau(  18) = (   0.8607501   0.6585133   0.4981787  )
        19        H      tau(  19) = (   0.3605328   0.8798946   0.1519977  )
        20        H      tau(  20) = (   0.6394672   0.1456763   0.1519977  )
        21        H      tau(  21) = (   0.8605328   0.6584617   0.1941994  )
        22        H      tau(  22) = (   0.1394672   0.3671092   0.1941994  )

     number of k points=    27
                       cart. coord. in units 2pi/alat
        k(    1) = (   0.0000000   0.0000000   0.0000000), wk =   0.0312500
        k(    2) = (   0.0000000   0.0000000   0.3610660), wk =   0.0625000
        k(    3) = (   0.0000000   0.0000000  -0.7221320), wk =   0.0312500
        k(    4) = (   0.0000000   0.2437667   0.0000000), wk =   0.0625000
        k(    5) = (   0.0000000   0.2437667   0.3610660), wk =   0.1250000
        k(    6) = (   0.0000000   0.2437667  -0.7221320), wk =   0.0625000
        k(    7) = (   0.0000000  -0.4875333   0.0000000), wk =   0.0312500
        k(    8) = (   0.0000000  -0.4875333   0.3610660), wk =   0.0625000
        k(    9) = (   0.0000000  -0.4875333  -0.7221320), wk =   0.0312500
        k(   10) = (   0.2500000   0.0000000   0.0000000), wk =   0.0625000
        k(   11) = (   0.2500000   0.0000000   0.3610660), wk =   0.1250000
        k(   12) = (   0.2500000   0.0000000  -0.7221320), wk =   0.0625000
        k(   13) = (   0.2500000   0.2437667   0.0000000), wk =   0.1250000
        k(   14) = (   0.2500000   0.2437667   0.3610660), wk =   0.2500000
        k(   15) = (   0.2500000   0.2437667  -0.7221320), wk =   0.1250000
        k(   16) = (   0.2500000  -0.4875333   0.0000000), wk =   0.0625000
        k(   17) = (   0.2500000  -0.4875333   0.3610660), wk =   0.1250000
        k(   18) = (   0.2500000  -0.4875333  -0.7221320), wk =   0.0625000
        k(   19) = (  -0.5000000   0.0000000   0.0000000), wk =   0.0312500
        k(   20) = (  -0.5000000   0.0000000   0.3610660), wk =   0.0625000
        k(   21) = (  -0.5000000   0.0000000  -0.7221320), wk =   0.0312500
        k(   22) = (  -0.5000000   0.2437667   0.0000000), wk =   0.0625000
        k(   23) = (  -0.5000000   0.2437667   0.3610660), wk =   0.1250000
        k(   24) = (  -0.5000000   0.2437667  -0.7221320), wk =   0.0625000
        k(   25) = (  -0.5000000  -0.4875333   0.0000000), wk =   0.0312500
        k(   26) = (  -0.5000000  -0.4875333   0.3610660), wk =   0.0625000
        k(   27) = (  -0.5000000  -0.4875333  -0.7221320), wk =   0.0312500

     Dense  grid:   561405 G-vectors     FFT dimensions: ( 120, 120,  80)

     Smooth grid:   198655 G-vectors     FFT dimensions: (  90,  90,  60)

     Estimated max dynamical RAM per process >     151.16 MB

     Estimated total dynamical RAM >       1.77 GB

     Initial potential from superposition of free atoms

     starting charge      47.9682, renormalised to      48.0000
     Starting wfcs are   42 randomized atomic wfcs

     total cpu time spent up to now is        4.6 secs

     Self-consistent Calculation

     iteration #  1     ecut=   100.00 Ry     beta= 0.70
     Davidson diagonalization with overlap
     ethr =  1.00E-02,  avg # of iterations =  2.0

     total cpu time spent up to now is       11.5 secs

     total energy              =    -155.94256575 Ry
     estimated scf accuracy    <       2.02084652 Ry

     iteration #  2     ecut=   100.00 Ry     beta= 0.70
     Davidson diagonalization with overlap
     ethr =  4.21E-03,  avg # of iterations =  2.0

     total cpu time spent up to now is       18.3 secs

     total energy              =    -156.40733291 Ry
     estimated scf accuracy    <       0.36726140 Ry

     iteration #  3     ecut=   100.00 Ry     beta= 0.70
     Davidson diagonalization with overlap
     ethr =  7.65E-04,  avg # of iterations =  2.0

     total cpu time spent up to now is       25.0 secs

     total energy              =    -156.46868386 Ry
     estimated scf accuracy    <       0.00478493 Ry

     iteration #  4     ecut=   100.00 Ry     beta= 0.70
     Davidson diagonalization with overlap
     ethr =  9.97E-06,  avg # of iterations =  5.1

     total cpu time spent up to now is       35.0 secs

     total energy              =    -156.47164343 Ry
     estimated scf accuracy    <       0.00174454 Ry

     iteration #  5     ecut=   100.00 Ry     beta= 0.70
     Davidson diagonalization with overlap
     ethr =  3.63E-06,  avg # of iterations =  3.1

     total cpu time spent up to now is       42.0 secs

     total energy              =    -156.47224433 Ry
     estimated scf accuracy    <       0.00017737 Ry

     iteration #  6     ecut=   100.00 Ry     beta= 0.70
     Davidson diagonalization with overlap
     ethr =  3.70E-07,  avg # of iterations =  4.0

     total cpu time spent up to now is       49.8 secs

     total energy              =    -156.47230836 Ry
     estimated scf accuracy    <       0.00000122 Ry

     iteration #  7     ecut=   100.00 Ry     beta= 0.70
     Davidson diagonalization with overlap
     ethr =  2.54E-09,  avg # of iterations =  9.3

     total cpu time spent up to now is       66.7 secs

     total energy              =    -156.47231870 Ry
     estimated scf accuracy    <       0.00000116 Ry

     iteration #  8     ecut=   100.00 Ry     beta= 0.70
     Davidson diagonalization with overlap
     ethr =  2.43E-09,  avg # of iterations =  2.0

     total cpu time spent up to now is       73.4 secs

     total energy              =    -156.47231894 Ry
     estimated scf accuracy    <       0.00000002 Ry

     iteration #  9     ecut=   100.00 Ry     beta= 0.70
     Davidson diagonalization with overlap
     ethr =  3.27E-11,  avg # of iterations =  5.9

     total cpu time spent up to now is       83.7 secs

     total energy              =    -156.47231896 Ry
     estimated scf accuracy    <          3.0E-09 Ry

     iteration # 10     ecut=   100.00 Ry     beta= 0.70
     Davidson diagonalization with overlap
     ethr =  6.33E-12,  avg # of iterations =  3.0

     total cpu time spent up to now is       91.5 secs

     total energy              =    -156.47231897 Ry
     estimated scf accuracy    <          4.0E-10 Ry

     iteration # 11     ecut=   100.00 Ry     beta= 0.70
     Davidson diagonalization with overlap
     ethr =  8.35E-13,  avg # of iterations =  3.8

     total cpu time spent up to now is       98.8 secs

     End of self-consistent calculation

          k = 0.0000 0.0000 0.0000 ( 24781 PWs)   bands (ev):

   -24.0713 -24.0632  -9.5785  -9.4981  -9.3183  -9.2829  -9.2516  -9.1930
    -6.0672  -5.1241  -4.4936  -4.3368  -1.7864  -0.8755  -0.8401  -0.4657
    -0.0961  -0.0880  -0.0517   0.0854   0.2433   0.6476   0.6693   0.7105

          k = 0.0000 0.0000 0.3611 ( 24802 PWs)   bands (ev):

   -24.0642 -24.0585  -9.4899  -9.4870  -9.4630  -9.4359  -9.3020  -9.2826
    -5.5868  -4.8817  -4.6515  -4.5497  -1.4191  -1.1639  -0.7047  -0.6457
    -0.5088  -0.3961  -0.0337   0.2496   0.4538   0.4824   0.5542   0.7047

          k = 0.0000 0.0000-0.7221 ( 24864 PWs)   bands (ev):

   -24.0554 -24.0554  -9.6919  -9.6917  -9.3558  -9.3558  -9.3120  -9.3119
    -4.8901  -4.8896  -4.7898  -4.7893  -1.1779  -1.1774  -1.1626  -1.1610
    -0.1050  -0.1044  -0.0545  -0.0526   0.5179   0.5181   0.5343   0.5349

          k = 0.0000 0.2438 0.0000 ( 24826 PWs)   bands (ev):

   -24.0701 -24.0644  -9.5510  -9.4698  -9.3668  -9.3155  -9.2429  -9.2014
    -5.8744  -5.0384  -4.7715  -4.4610  -1.4318  -1.0192  -0.9568  -0.1930
    -0.1873  -0.1562   0.1279   0.2437   0.3301   0.3328   0.5622   0.6408

          k = 0.0000 0.2438 0.3611 ( 24832 PWs)   bands (ev):

   -24.0633 -24.0593  -9.5305  -9.4923  -9.4205  -9.4101  -9.3099  -9.3027
    -5.4810  -4.9531  -4.6964  -4.5911  -1.2295  -1.1883  -0.9811  -0.4242
    -0.3789  -0.1837  -0.1741   0.3002   0.3830   0.4237   0.5291   0.5869

          k = 0.0000 0.2438-0.7221 ( 24838 PWs)   bands (ev):

   -24.0554 -24.0554  -9.7048  -9.7046  -9.3389  -9.3388  -9.3111  -9.3111
    -5.1458  -5.1458  -4.5246  -4.5245  -1.2913  -1.2906  -0.9943  -0.9935
    -0.0376  -0.0374  -0.0087  -0.0072   0.3510   0.3510   0.5293   0.5296

          k = 0.0000-0.4875 0.0000 ( 24826 PWs)   bands (ev):

   -24.0672 -24.0672  -9.4741  -9.4741  -9.3897  -9.3897  -9.2219  -9.2219
    -5.3881  -5.3881  -4.7372  -4.7372  -1.1381  -1.1381  -0.4964  -0.4964
    -0.2614  -0.2614   0.2442   0.2442   0.3670   0.3670   0.4972   0.4972

          k = 0.0000-0.4875 0.3611 ( 24858 PWs)   bands (ev):

   -24.0613 -24.0613  -9.5289  -9.5289  -9.3702  -9.3702  -9.3367  -9.3367
    -5.2162  -5.2162  -4.6693  -4.6693  -1.1703  -1.1703  -0.7554  -0.7554
    -0.1419  -0.1419   0.1391   0.1391   0.2976   0.2976   0.5069   0.5069

          k = 0.0000-0.4875-0.7221 ( 24824 PWs)   bands (ev):

   -24.0554 -24.0554  -9.7166  -9.7166  -9.3250  -9.3250  -9.3082  -9.3082
    -5.2680  -5.2680  -4.3932  -4.3932  -1.3790  -1.3790  -0.7599  -0.7599
    -0.1079  -0.1079   0.0684   0.0684   0.1615   0.1615   0.5661   0.5661

          k = 0.2500 0.0000 0.0000 ( 24753 PWs)   bands (ev):

   -24.0701 -24.0644  -9.5424  -9.4803  -9.3581  -9.3302  -9.2429  -9.2014
    -5.8826  -5.1643  -4.5285  -4.4861  -1.5977  -0.7469  -0.7451  -0.5947
    -0.0656  -0.0269   0.0403   0.1077   0.2037   0.2293   0.6153   0.6560

          k = 0.2500 0.0000 0.3611 ( 24822 PWs)   bands (ev):

   -24.0633 -24.0593  -9.5215  -9.5034  -9.4477  -9.3874  -9.3251  -9.2911
    -5.4409  -4.8731  -4.6808  -4.6769  -1.3888  -1.1403  -0.9932  -0.4752
    -0.4477  -0.1895   0.0431   0.1780   0.3084   0.4413   0.6322   0.6556

          k = 0.2500 0.0000-0.7221 ( 24816 PWs)   bands (ev):

   -24.0554 -24.0554  -9.7090  -9.7089  -9.3435  -9.3434  -9.3087  -9.3086
    -4.9486  -4.9482  -4.7021  -4.7018  -1.6390  -1.6385  -0.7327  -0.7322
    -0.1173  -0.1169   0.1967   0.1982   0.3267   0.3268   0.5699   0.5703

          k = 0.2500 0.2438 0.0000 ( 24786 PWs)   bands (ev):

   -24.0692 -24.0652  -9.5680  -9.4572  -9.4061  -9.2890  -9.2365  -9.2072
    -5.7418  -5.1249  -4.7597  -4.5258  -1.3126  -0.9852  -0.7605  -0.3040
    -0.2325  -0.1875   0.1142   0.2535   0.2761   0.3474   0.4268   0.5701

          k = 0.2500 0.2438 0.3611 ( 24819 PWs)   bands (ev):

   -24.0627 -24.0599  -9.5231  -9.4864  -9.4824  -9.3694  -9.3343  -9.2854
    -5.3520  -4.9039  -4.7795  -4.6692  -1.3492  -1.1038  -1.0156  -0.4644
    -0.2977  -0.1267  -0.0214   0.1938   0.2929   0.4057   0.5520   0.6349

          k = 0.2500 0.2438-0.7221 ( 24832 PWs)   bands (ev):

   -24.0553 -24.0553  -9.7157  -9.6937  -9.3626  -9.3264  -9.3156  -9.3092
    -5.1517  -4.9840  -4.6599  -4.4881  -1.6149  -1.5389  -0.7974  -0.7045
    -0.1629  -0.1618   0.1686   0.2264   0.3497   0.3852   0.5167   0.5531

          k = 0.2500-0.4875 0.0000 ( 24842 PWs)   bands (ev):

   -24.0672 -24.0672  -9.5440  -9.5440  -9.3208  -9.3208  -9.2216  -9.2216
    -5.3822  -5.3822  -4.7350  -4.7350  -1.0396  -1.0396  -0.5076  -0.5076
    -0.2975  -0.2975   0.1761   0.1761   0.4027   0.4027   0.4315   0.4315

          k = 0.2500-0.4875 0.3611 ( 24820 PWs)   bands (ev):

   -24.0613 -24.0613  -9.5187  -9.5187  -9.4260  -9.4260  -9.2981  -9.2981
    -5.1293  -5.1293  -4.7389  -4.7389  -1.2560  -1.2560  -0.6906  -0.6906
    -0.1569  -0.1569   0.1631   0.1631   0.3034   0.3034   0.5249   0.5249

          k = 0.2500-0.4875-0.7221 ( 24824 PWs)   bands (ev):

   -24.0553 -24.0553  -9.7014  -9.7014  -9.3464  -9.3464  -9.3145  -9.3145
    -5.1650  -5.1650  -4.4682  -4.4682  -1.5062  -1.5062  -0.8155  -0.8155
    -0.0518  -0.0518   0.0728   0.0728   0.3721   0.3721   0.5408   0.5408

          k =-0.5000 0.0000 0.0000 ( 24784 PWs)   bands (ev):

   -24.0672 -24.0672  -9.4545  -9.4545  -9.4171  -9.4171  -9.2219  -9.2219
    -5.4627  -5.4627  -4.5842  -4.5842  -1.1798  -1.1798  -0.3890  -0.3890
    -0.0288  -0.0288  -0.0039  -0.0039   0.0898   0.0898   0.5090   0.5090

          k =-0.5000 0.0000 0.3611 ( 24804 PWs)   bands (ev):

   -24.0613 -24.0613  -9.5320  -9.5320  -9.3905  -9.3905  -9.3237  -9.3237
    -5.0974  -5.0974  -4.7396  -4.7396  -1.3089  -1.3089  -0.7482  -0.7482
    -0.1572  -0.1572   0.0321   0.0321   0.4043   0.4043   0.6175   0.6175

          k =-0.5000 0.0000-0.7221 ( 24872 PWs)   bands (ev):

   -24.0553 -24.0553  -9.7248  -9.7248  -9.3337  -9.3337  -9.3039  -9.3039
    -4.9832  -4.9832  -4.6359  -4.6359  -1.8483  -1.8483  -0.4509  -0.4509
    -0.1253  -0.1253   0.0463   0.0463   0.5078   0.5078   0.5345   0.5345

          k =-0.5000 0.2438 0.0000 ( 24800 PWs)   bands (ev):

   -24.0672 -24.0672  -9.5427  -9.5427  -9.3260  -9.3260  -9.2216  -9.2216
    -5.4240  -5.4240  -4.6542  -4.6542  -1.0719  -1.0719  -0.3952  -0.3952
    -0.2316  -0.2316  -0.0426  -0.0426   0.3143   0.3143   0.4868   0.4868

          k =-0.5000 0.2438 0.3611 ( 24830 PWs)   bands (ev):

   -24.0613 -24.0613  -9.5206  -9.5206  -9.4302  -9.4302  -9.2969  -9.2969
    -5.0524  -5.0524  -4.7912  -4.7912  -1.3128  -1.3128  -0.7231  -0.7231
    -0.1220  -0.1220   0.0797   0.0797   0.3970   0.3970   0.5490   0.5490

          k =-0.5000 0.2438-0.7221 ( 24824 PWs)   bands (ev):

   -24.0553 -24.0553  -9.7058  -9.7058  -9.3489  -9.3489  -9.3137  -9.3137
    -5.0081  -5.0081  -4.6038  -4.6038  -1.7500  -1.7500  -0.6535  -0.6535
    -0.0809  -0.0809   0.1142   0.1142   0.4529   0.4529   0.5893   0.5893

          k =-0.5000-0.4875 0.0000 ( 24832 PWs)   bands (ev):

   -24.0672 -24.0672  -9.5850  -9.5850  -9.2808  -9.2808  -9.2213  -9.2213
    -5.3781  -5.3781  -4.7301  -4.7301  -0.9156  -0.9156  -0.5484  -0.5484
    -0.3303  -0.3303   0.1494   0.1494   0.3273   0.3273   0.4350   0.4350

          k =-0.5000-0.4875 0.3611 ( 24800 PWs)   bands (ev):

   -24.0612 -24.0612  -9.4990  -9.4990  -9.4695  -9.4695  -9.2809  -9.2809
    -4.9754  -4.9754  -4.8745  -4.8745  -1.2987  -1.2987  -0.7655  -0.7655
     0.0277   0.0277   0.1693   0.1693   0.3118   0.3118   0.4502   0.4502

          k =-0.5000-0.4875-0.7221 ( 24872 PWs)   bands (ev):

   -24.0553 -24.0553  -9.6843  -9.6843  -9.3701  -9.3701  -9.3200  -9.3200
    -5.0302  -5.0302  -4.5744  -4.5744  -1.5978  -1.5978  -0.9388  -0.9388
     0.1380   0.1380   0.1863   0.1863   0.3308   0.3308   0.5562   0.5562

     highest occupied level (ev):     0.7105

!    total energy              =    -156.47231897 Ry
     estimated scf accuracy    <          5.1E-11 Ry

     The total energy is the sum of the following terms:
     one-electron contribution =     -23.07341686 Ry
     hartree contribution      =      25.64179203 Ry
     xc contribution           =     -48.99479855 Ry
     ewald contribution        =    -110.04589558 Ry

     convergence has been achieved in  11 iterations

     Forces acting on atoms (cartesian axes, Ry/au):

     atom    1 type  2   force =     0.00000000    0.00000000    0.00001165
     atom    2 type  2   force =     0.00000000    0.00000000   -0.00001165
     atom    3 type  1   force =     0.00018102    0.00090092   -0.00001375
     atom    4 type  1   force =    -0.00018102   -0.00090092   -0.00001375
     atom    5 type  1   force =     0.00018102   -0.00090092    0.00001375
     atom    6 type  1   force =    -0.00018102    0.00090092    0.00001375
     atom    7 type  3   force =     0.00779052   -0.00197747   -0.00001876
     atom    8 type  3   force =    -0.00779052    0.00197747   -0.00001876
     atom    9 type  3   force =     0.00779052    0.00197747    0.00001876
     atom   10 type  3   force =    -0.00779052   -0.00197747    0.00001876
     atom   11 type  3   force =    -0.00515123   -0.00622313    0.00000689
     atom   12 type  3   force =     0.00515123    0.00622313    0.00000689
     atom   13 type  3   force =    -0.00515123    0.00622313   -0.00000689
     atom   14 type  3   force =     0.00515123   -0.00622313   -0.00000689
     atom   15 type  3   force =    -0.00094286    0.00457434    0.00695115
     atom   16 type  3   force =     0.00094286   -0.00457434    0.00695115
     atom   17 type  3   force =    -0.00094286   -0.00457434   -0.00695115
     atom   18 type  3   force =     0.00094286    0.00457434   -0.00695115
     atom   19 type  3   force =     0.00099542   -0.00459410   -0.00695856
     atom   20 type  3   force =    -0.00099542    0.00459410   -0.00695856
     atom   21 type  3   force =     0.00099542    0.00459410    0.00695856
     atom   22 type  3   force =    -0.00099542   -0.00459410    0.00695856

     Total force =     0.032946     Total SCF correction =     0.000004


     Computing stress (Cartesian axis) and pressure

          total   stress  (Ry/bohr**3)                   (kbar)     P=      -17.16
  -0.00010855   0.00000000   0.00000000          -15.97        0.00        0.00
   0.00000000  -0.00011076   0.00000000            0.00      -16.29        0.00
   0.00000000   0.00000000  -0.00013057            0.00        0.00      -19.21

     Volume is kept fixed: isostatic pressure set to zero

     BFGS Geometry Optimization
     Energy error            =      0.0E+00 Ry
     Gradient error          =      7.8E-03 Ry/Bohr
     Cell gradient error     =      2.1E+00 kbar

     number of scf cycles    =   1
     number of bfgs steps    =   0

     enthalpy           new  =    -156.4723189653 Ry

     new trust radius        =       0.0083975121 bohr
ibrav =      8
 celldm(1) =     12.74672905
 celldm(2) =      1.02551417
 celldm(3) =      0.69201296
Input lattice vectors:
     1.00020204     0.00000000     0.00000000
     0.00000000     1.02572136     0.00000000
     0.00000000     0.00000000     0.69215277
New lattice vectors in INITIAL alat:
     1.00020204     0.00000000     0.00000000
     0.00000000     1.02572136     0.00000000
     0.00000000     0.00000000     0.69215277
New lattice vectors in NEW alat (for information only):
     1.00000000     0.00000000     0.00000000
     0.00000000     1.02551417     0.00000000
     0.00000000     0.00000000     0.69201296
Discrepancy in bohr =     0.000000    0.000000    0.000000
     new conv_thr            =            1.0E-10 Ry

     new unit-cell volume =   1469.77940 a.u.^3 (   217.79884 Ang^3 )
     density =      2.54667 g/cm^3

CELL_PARAMETERS (alat= 12.74415427)
   1.000202036   0.000000000   0.000000000
   0.000000000   1.025721356   0.000000000
   0.000000000   0.000000000   0.692152773

ATOMIC_POSITIONS (crystal)
Ba               0.5000000000        0.5000000000        0.5001004859
Ba               0.0000000000        0.0000000000        0.9998995141
B                0.6102712201        0.2392713101        0.0000640983
B                0.3897287799        0.7607286899        0.0000640983
B                0.1102712201        0.2607286899        0.4999359017
B                0.8897287799        0.7392713101        0.4999359017
H                0.4347085537        0.2920044304        0.0002288068
H                0.5652914463        0.7079955696        0.0002288068
H                0.9347085537        0.2079955696        0.4997711932
H                0.0652914463        0.7920044304        0.4997711932
H                0.7216560645        0.3830788722       -0.0000075902
H                0.2783439355        0.6169211278       -0.0000075902
H                0.2216560645        0.1169211278        0.5000075902
H                0.7783439355        0.8830788722        0.5000075902
H                0.6391759411        0.1424443816        0.7812861713
H                0.3608240589        0.8575556184        0.7812861713
H                0.1391759411        0.3575556184        0.7187138287
H                0.8608240589        0.6424443816        0.7187138287
H                0.3606109388        0.8576044162        0.2187362511
H                0.6393890612        0.1423955838        0.2187362511
H                0.8606109388        0.6423955838        0.2812637489
H                0.1393890612        0.3576044162        0.2812637489



     Writing config-only to output data dir ./pwscf.save/ :
     XML data file
     NEW-OLD atomic charge density approx. for the potential

     total cpu time spent up to now is      107.4 secs

     Self-consistent Calculation

     iteration #  1     ecut=   100.00 Ry     beta= 0.70
     Davidson diagonalization with overlap
     ethr =  1.00E-06,  avg # of iterations =  3.0

     total cpu time spent up to now is      115.8 secs

     total energy              =    -156.47314106 Ry
     estimated scf accuracy    <       0.00023864 Ry

     iteration #  2     ecut=   100.00 Ry     beta= 0.70
     Davidson diagonalization with overlap
     ethr =  4.97E-07,  avg # of iterations =  2.0

     total cpu time spent up to now is      122.5 secs

     total energy              =    -156.47320330 Ry
     estimated scf accuracy    <       0.00004044 Ry

     iteration #  3     ecut=   100.00 Ry     beta= 0.70
     Davidson diagonalization with overlap
     ethr =  8.43E-08,  avg # of iterations =  2.0

     total cpu time spent up to now is      129.2 secs

     total energy              =    -156.47320916 Ry
     estimated scf accuracy    <       0.00000038 Ry

     iteration #  4     ecut=   100.00 Ry     beta= 0.70
     Davidson diagonalization with overlap
     ethr =  7.96E-10,  avg # of iterations =  3.5

     total cpu time spent up to now is      137.7 secs

     total energy              =    -156.47320937 Ry
     estimated scf accuracy    <       0.00000031 Ry

     iteration #  5     ecut=   100.00 Ry     beta= 0.70
     Davidson diagonalization with overlap
     ethr =  6.36E-10,  avg # of iterations =  2.0

     total cpu time spent up to now is      144.4 secs

     total energy              =    -156.47320941 Ry
     estimated scf accuracy    <          7.5E-09 Ry

     iteration #  6     ecut=   100.00 Ry     beta= 0.70
     Davidson diagonalization with overlap
     ethr =  1.56E-11,  avg # of iterations =  5.2

     total cpu time spent up to now is      153.8 secs

     total energy              =    -156.47320941 Ry
     estimated scf accuracy    <          2.7E-09 Ry

     iteration #  7     ecut=   100.00 Ry     beta= 0.70
     Davidson diagonalization with overlap
     ethr =  5.55E-12,  avg # of iterations =  2.9

     total cpu time spent up to now is      160.7 secs

     End of self-consistent calculation

          k = 0.0000 0.0000 0.0000 ( 24781 PWs)   bands (ev):

   -24.0789 -24.0708  -9.5863  -9.5054  -9.3255  -9.2900  -9.2584  -9.1999
    -6.0820  -5.1482  -4.5165  -4.3613  -1.7860  -0.8848  -0.8445  -0.4801
    -0.1082  -0.0933  -0.0602   0.0736   0.2330   0.6308   0.6524   0.6925

          k = 0.0000 0.0000 0.3612 ( 24802 PWs)   bands (ev):

   -24.0717 -24.0661  -9.4974  -9.4947  -9.4708  -9.4430  -9.3091  -9.2896
    -5.6024  -4.9048  -4.6754  -4.5748  -1.4176  -1.1657  -0.7066  -0.6556
    -0.5176  -0.4054  -0.0458   0.2351   0.4383   0.4661   0.5398   0.6878

          k = 0.0000 0.0000-0.7224 ( 24864 PWs)   bands (ev):

   -24.0629 -24.0629  -9.7001  -9.7000  -9.3627  -9.3627  -9.3190  -9.3190
    -4.9098  -4.9093  -4.8150  -4.8145  -1.1782  -1.1777  -1.1624  -1.1608
    -0.1180  -0.1174  -0.0665  -0.0646   0.5022   0.5024   0.5181   0.5186

          k = 0.0000 0.2437 0.0000 ( 24826 PWs)   bands (ev):

   -24.0777 -24.0720  -9.5587  -9.4772  -9.3740  -9.3225  -9.2497  -9.2083
    -5.8899  -5.0625  -4.7919  -4.4853  -1.4343  -1.0235  -0.9638  -0.2038
    -0.1966  -0.1712   0.1184   0.2323   0.3153   0.3213   0.5457   0.6243

          k = 0.0000 0.2437 0.3612 ( 24832 PWs)   bands (ev):

   -24.0709 -24.0669  -9.5380  -9.5000  -9.4281  -9.4173  -9.3171  -9.3097
    -5.4976  -4.9756  -4.7193  -4.6157  -1.2297  -1.1897  -0.9846  -0.4318
    -0.3883  -0.1970  -0.1843   0.2857   0.3681   0.4080   0.5139   0.5711

          k = 0.0000 0.2437-0.7224 ( 24838 PWs)   bands (ev):

   -24.0629 -24.0629  -9.7130  -9.7129  -9.3457  -9.3457  -9.3182  -9.3182
    -5.1681  -5.1680  -4.5471  -4.5470  -1.2913  -1.2907  -0.9951  -0.9944
    -0.0505  -0.0504  -0.0215  -0.0199   0.3365   0.3365   0.5129   0.5132

          k = 0.0000-0.4875 0.0000 ( 24826 PWs)   bands (ev):

   -24.0748 -24.0748  -9.4818  -9.4818  -9.3967  -9.3967  -9.2288  -9.2288
    -5.4056  -5.4056  -4.7611  -4.7611  -1.1419  -1.1419  -0.5059  -0.5059
    -0.2710  -0.2710   0.2279   0.2279   0.3551   0.3551   0.4828   0.4828

          k = 0.0000-0.4875 0.3612 ( 24858 PWs)   bands (ev):

   -24.0689 -24.0689  -9.5364  -9.5364  -9.3778  -9.3778  -9.3436  -9.3436
    -5.2356  -5.2356  -4.6927  -4.6927  -1.1715  -1.1715  -0.7610  -0.7610
    -0.1536  -0.1536   0.1271   0.1271   0.2817   0.2817   0.4916   0.4916

          k = 0.0000-0.4875-0.7224 ( 24824 PWs)   bands (ev):

   -24.0629 -24.0629  -9.7247  -9.7247  -9.3319  -9.3319  -9.3153  -9.3153
    -5.2904  -5.2904  -4.4154  -4.4154  -1.3789  -1.3789  -0.7610  -0.7610
    -0.1217  -0.1217   0.0568   0.0568   0.1467   0.1467   0.5495   0.5495

          k = 0.2499 0.0000 0.0000 ( 24753 PWs)   bands (ev):

   -24.0777 -24.0720  -9.5502  -9.4876  -9.3654  -9.3372  -9.2497  -9.2083
    -5.8983  -5.1868  -4.5518  -4.5098  -1.5981  -0.7526  -0.7521  -0.6056
    -0.0746  -0.0386   0.0300   0.0955   0.1922   0.2154   0.5985   0.6380

          k = 0.2499 0.0000 0.3612 ( 24822 PWs)   bands (ev):

   -24.0709 -24.0669  -9.5291  -9.5111  -9.4552  -9.3947  -9.3322  -9.2982
    -5.4574  -4.8955  -4.7048  -4.7012  -1.3869  -1.1441  -0.9939  -0.4841
    -0.4585  -0.1999   0.0295   0.1645   0.2940   0.4267   0.6152   0.6399

          k = 0.2499 0.0000-0.7224 ( 24816 PWs)   bands (ev):

   -24.0629 -24.0629  -9.7172  -9.7171  -9.3503  -9.3503  -9.3157  -9.3157
    -4.9719  -4.9715  -4.7239  -4.7235  -1.6370  -1.6365  -0.7356  -0.7352
    -0.1301  -0.1297   0.1837   0.1851   0.3122   0.3123   0.5536   0.5539

          k = 0.2499 0.2437 0.0000 ( 24786 PWs)   bands (ev):

   -24.0768 -24.0728  -9.5756  -9.4648  -9.4131  -9.2961  -9.2434  -9.2141
    -5.7583  -5.1471  -4.7813  -4.5489  -1.3160  -0.9907  -0.7683  -0.3138
    -0.2419  -0.1972   0.1003   0.2419   0.2617   0.3352   0.4108   0.5545

          k = 0.2499 0.2437 0.3612 ( 24819 PWs)   bands (ev):

   -24.0703 -24.0674  -9.5307  -9.4940  -9.4896  -9.3770  -9.3412  -9.2924
    -5.3694  -4.9267  -4.8015  -4.6932  -1.3486  -1.1046  -1.0201  -0.4736
    -0.3080  -0.1379  -0.0344   0.1809   0.2781   0.3904   0.5362   0.6193

          k = 0.2499 0.2437-0.7224 ( 24832 PWs)   bands (ev):

   -24.0629 -24.0629  -9.7239  -9.7019  -9.3695  -9.3333  -9.3226  -9.3163
    -5.1746  -5.0068  -4.6823  -4.5101  -1.6129  -1.5368  -0.8011  -0.7073
    -0.1753  -0.1744   0.1563   0.2130   0.3345   0.3699   0.5014   0.5361

          k = 0.2499-0.4875 0.0000 ( 24842 PWs)   bands (ev):

   -24.0748 -24.0748  -9.5515  -9.5515  -9.3280  -9.3280  -9.2285  -9.2285
    -5.4011  -5.4011  -4.7571  -4.7571  -1.0452  -1.0452  -0.5170  -0.5170
    -0.3068  -0.3068   0.1630   0.1630   0.3903   0.3903   0.4160   0.4160

          k = 0.2499-0.4875 0.3612 ( 24820 PWs)   bands (ev):

   -24.0689 -24.0689  -9.5261  -9.5261  -9.4334  -9.4334  -9.3052  -9.3052
    -5.1491  -5.1491  -4.7617  -4.7617  -1.2565  -1.2565  -0.6979  -0.6979
    -0.1678  -0.1678   0.1499   0.1499   0.2888   0.2888   0.5095   0.5095

          k = 0.2499-0.4875-0.7224 ( 24824 PWs)   bands (ev):

   -24.0629 -24.0629  -9.7096  -9.7096  -9.3532  -9.3532  -9.3215  -9.3215
    -5.1877  -5.1877  -4.4904  -4.4904  -1.5042  -1.5042  -0.8192  -0.8192
    -0.0651  -0.0651   0.0610   0.0610   0.3568   0.3568   0.5246   0.5246

          k =-0.4999 0.0000 0.0000 ( 24784 PWs)   bands (ev):

   -24.0748 -24.0748  -9.4623  -9.4623  -9.4240  -9.4240  -9.2288  -9.2288
    -5.4810  -5.4810  -4.6080  -4.6080  -1.1821  -1.1821  -0.3981  -0.3981
    -0.0373  -0.0373  -0.0182  -0.0182   0.0771   0.0771   0.4921   0.4921

          k =-0.4999 0.0000 0.3612 ( 24804 PWs)   bands (ev):

   -24.0689 -24.0689  -9.5395  -9.5395  -9.3979  -9.3979  -9.3307  -9.3307
    -5.1163  -5.1163  -4.7639  -4.7639  -1.3080  -1.3080  -0.7547  -0.7547
    -0.1694  -0.1694   0.0191   0.0191   0.3901   0.3901   0.6010   0.6010

          k =-0.4999 0.0000-0.7224 ( 24872 PWs)   bands (ev):

   -24.0629 -24.0629  -9.7331  -9.7331  -9.3405  -9.3405  -9.3110  -9.3110
    -5.0077  -5.0077  -4.6568  -4.6568  -1.8453  -1.8453  -0.4550  -0.4550
    -0.1381  -0.1381   0.0329   0.0329   0.4935   0.4935   0.5176   0.5176

          k =-0.4999 0.2437 0.0000 ( 24800 PWs)   bands (ev):

   -24.0748 -24.0748  -9.5502  -9.5502  -9.3332  -9.3332  -9.2285  -9.2285
    -5.4431  -5.4431  -4.6765  -4.6765  -1.0769  -1.0769  -0.4042  -0.4042
    -0.2407  -0.2407  -0.0553  -0.0553   0.3020   0.3020   0.4705   0.4705

          k =-0.4999 0.2437 0.3612 ( 24830 PWs)   bands (ev):

   -24.0688 -24.0688  -9.5281  -9.5281  -9.4376  -9.4376  -9.3040  -9.3040
    -5.0720  -5.0720  -4.8146  -4.8146  -1.3124  -1.3124  -0.7303  -0.7303
    -0.1339  -0.1339   0.0667   0.0667   0.3824   0.3824   0.5336   0.5336

          k =-0.4999 0.2437-0.7224 ( 24824 PWs)   bands (ev):

   -24.0629 -24.0629  -9.7141  -9.7141  -9.3558  -9.3558  -9.3208  -9.3208
    -5.0319  -5.0319  -4.6254  -4.6254  -1.7470  -1.7470  -0.6579  -0.6579
    -0.0930  -0.0930   0.1004   0.1004   0.4379   0.4379   0.5732   0.5732

          k =-0.4999-0.4875 0.0000 ( 24832 PWs)   bands (ev):

   -24.0748 -24.0748  -9.5925  -9.5925  -9.2880  -9.2880  -9.2281  -9.2281
    -5.3983  -5.3983  -4.7506  -4.7506  -0.9251  -0.9251  -0.5546  -0.5546
    -0.3391  -0.3391   0.1360   0.1360   0.3130   0.3130   0.4222   0.4222

          k =-0.4999-0.4875 0.3612 ( 24800 PWs)   bands (ev):

   -24.0688 -24.0688  -9.5062  -9.5062  -9.4772  -9.4772  -9.2880  -9.2880
    -4.9961  -4.9961  -4.8965  -4.8965  -1.2987  -1.2987  -0.7732  -0.7732
     0.0162   0.0162   0.1543   0.1543   0.2975   0.2975   0.4367   0.4367

          k =-0.4999-0.4875-0.7224 ( 24872 PWs)   bands (ev):

   -24.0629 -24.0629  -9.6926  -9.6926  -9.3770  -9.3770  -9.3270  -9.3270
    -5.0535  -5.0535  -4.5965  -4.5965  -1.5948  -1.5948  -0.9428  -0.9428
     0.1243   0.1243   0.1712   0.1712   0.3171   0.3171   0.5410   0.5410

     highest occupied level (ev):     0.6925

!    total energy              =    -156.47320942 Ry
     estimated scf accuracy    <          5.8E-12 Ry

     The total energy is the sum of the following terms:
     one-electron contribution =     -23.31817241 Ry
     hartree contribution      =      25.76379902 Ry
     xc contribution           =     -49.02526539 Ry
     ewald contribution        =    -109.89357063 Ry

     convergence has been achieved in   7 iterations

     Forces acting on atoms (cartesian axes, Ry/au):

     atom    1 type  2   force =     0.00000000    0.00000000    0.00000964
     atom    2 type  2   force =     0.00000000    0.00000000   -0.00000964
     atom    3 type  1   force =     0.00023852    0.00099501   -0.00001096
     atom    4 type  1   force =    -0.00023852   -0.00099501   -0.00001096
     atom    5 type  1   force =     0.00023852   -0.00099501    0.00001096
     atom    6 type  1   force =    -0.00023852    0.00099501    0.00001096
     atom    7 type  3   force =     0.00497576   -0.00113937   -0.00001766
     atom    8 type  3   force =    -0.00497576    0.00113937   -0.00001766
     atom    9 type  3   force =     0.00497576    0.00113937    0.00001766
     atom   10 type  3   force =    -0.00497576   -0.00113937    0.00001766
     atom   11 type  3   force =    -0.00329365   -0.00373409    0.00000529
     atom   12 type  3   force =     0.00329365    0.00373409    0.00000529
     atom   13 type  3   force =    -0.00329365    0.00373409   -0.00000529
     atom   14 type  3   force =     0.00329365   -0.00373409   -0.00000529
     atom   15 type  3   force =    -0.00045632    0.00289493    0.00423595
     atom   16 type  3   force =     0.00045632   -0.00289493    0.00423595
     atom   17 type  3   force =    -0.00045632   -0.00289493   -0.00423595
     atom   18 type  3   force =     0.00045632    0.00289493   -0.00423595
     atom   19 type  3   force =     0.00050300   -0.00291223   -0.00424440
     atom   20 type  3   force =    -0.00050300    0.00291223   -0.00424440
     atom   21 type  3   force =     0.00050300    0.00291223    0.00424440
     atom   22 type  3   force =    -0.00050300   -0.00291223    0.00424440

     Total force =     0.020511     Total SCF correction =     0.000001


     Computing stress (Cartesian axis) and pressure

          total   stress  (Ry/bohr**3)                   (kbar)     P=      -13.47
  -0.00008545   0.00000000   0.00000000          -12.57        0.00        0.00
   0.00000000  -0.00008666   0.00000000            0.00      -12.75        0.00
   0.00000000   0.00000000  -0.00010254            0.00        0.00      -15.08

     Volume is kept fixed: isostatic pressure set to zero
     Energy error            =      8.9E-04 Ry
     Gradient error          =      5.0E-03 Ry/Bohr
     Cell gradient error     =      1.6E+00 kbar

     number of scf cycles    =   2
     number of bfgs steps    =   1

     enthalpy           old  =    -156.4723189653 Ry
     enthalpy           new  =    -156.4732094150 Ry

     CASE: enthalpy          _new < enthalpy          _old

     new trust radius        =       0.0125938419 bohr
ibrav =      8
 celldm(1) =     12.75146149
 celldm(2) =      1.02543870
 celldm(3) =      0.69129364
Input lattice vectors:
     1.00057338     0.00000000     0.00000000
     0.00000000     1.02602666     0.00000000
     0.00000000     0.00000000     0.69169001
New lattice vectors in INITIAL alat:
     1.00057338     0.00000000     0.00000000
     0.00000000     1.02602666     0.00000000
     0.00000000     0.00000000     0.69169001
New lattice vectors in NEW alat (for information only):
     1.00000000     0.00000000     0.00000000
     0.00000000     1.02543870     0.00000000
     0.00000000     0.00000000     0.69129364
Discrepancy in bohr =     0.000000    0.000000    0.000000
     new conv_thr            =            8.9E-11 Ry

     new unit-cell volume =   1469.77940 a.u.^3 (   217.79884 Ang^3 )
     density =      2.54667 g/cm^3

CELL_PARAMETERS (alat= 12.74415427)
   1.000573378   0.000000000   0.000000000
   0.000000000   1.026026662   0.000000000
   0.000000000   0.000000000   0.691690013

ATOMIC_POSITIONS (crystal)
Ba               0.5000000000        0.5000000000        0.5001031409
Ba               0.0000000000        0.0000000000        0.9998968591
B                0.6103166753        0.2394562927        0.0000610770
B                0.3896833247        0.7605437073        0.0000610770
B                0.1103166753        0.2605437073        0.4999389230
B                0.8896833247        0.7394562927        0.4999389230
H                0.4356596165        0.2917919611        0.0002239426
H                0.5643403835        0.7082080389        0.0002239426
H                0.9356596165        0.2082080389        0.4997760574
H                0.0643403835        0.7917919611        0.4997760574
H                0.7210265232        0.3823827161       -0.0000061323
H                0.2789734768        0.6176172839       -0.0000061323
H                0.2210265232        0.1176172839        0.5000061323
H                0.7789734768        0.8823827161        0.5000061323
H                0.6390885604        0.1429839193        0.7824552127
H                0.3609114396        0.8570160807        0.7824552127
H                0.1390885604        0.3570160807        0.7175447873
H                0.8609114396        0.6429839193        0.7175447873
H                0.3607072288        0.8570616592        0.2175648838
H                0.6392927712        0.1429383408        0.2175648838
H                0.8607072288        0.6429383408        0.2824351162
H                0.1392927712        0.3570616592        0.2824351162



     Writing config-only to output data dir ./pwscf.save/ :
     XML data file
     NEW-OLD atomic charge density approx. for the potential

     total cpu time spent up to now is      169.3 secs

     Self-consistent Calculation

     iteration #  1     ecut=   100.00 Ry     beta= 0.70
     Davidson diagonalization with overlap
     ethr =  1.00E-06,  avg # of iterations =  4.0

     total cpu time spent up to now is      178.8 secs

     total energy              =    -156.47356655 Ry
     estimated scf accuracy    <       0.00062463 Ry

     iteration #  2     ecut=   100.00 Ry     beta= 0.70
     Davidson diagonalization with overlap
     ethr =  1.30E-06,  avg # of iterations =  2.0

     total cpu time spent up to now is      185.6 secs

     total energy              =    -156.47374940 Ry
     estimated scf accuracy    <       0.00014127 Ry

     iteration #  3     ecut=   100.00 Ry     beta= 0.70
     Davidson diagonalization with overlap
     ethr =  2.94E-07,  avg # of iterations =  2.0

     total cpu time spent up to now is      192.3 secs

     total energy              =    -156.47376851 Ry
     estimated scf accuracy    <       0.00000183 Ry

     iteration #  4     ecut=   100.00 Ry     beta= 0.70
     Davidson diagonalization with overlap
     ethr =  3.82E-09,  avg # of iterations =  3.0

     total cpu time spent up to now is      200.5 secs

     total energy              =    -156.47376946 Ry
     estimated scf accuracy    <       0.00000117 Ry

     iteration #  5     ecut=   100.00 Ry     beta= 0.70
     Davidson diagonalization with overlap
     ethr =  2.44E-09,  avg # of iterations =  2.0

     total cpu time spent up to now is      207.3 secs

     total energy              =    -156.47376958 Ry
     estimated scf accuracy    <       0.00000006 Ry

     iteration #  6     ecut=   100.00 Ry     beta= 0.70
     Davidson diagonalization with overlap
     ethr =  1.16E-10,  avg # of iterations =  3.4

     total cpu time spent up to now is      215.1 secs

     total energy              =    -156.47376960 Ry
     estimated scf accuracy    <       0.00000002 Ry

     iteration #  7     ecut=   100.00 Ry     beta= 0.70
     Davidson diagonalization with overlap
     ethr =  4.04E-11,  avg # of iterations =  3.3

     total cpu time spent up to now is      222.3 secs

     total energy              =    -156.47376961 Ry
     estimated scf accuracy    <          1.9E-10 Ry

     iteration #  8     ecut=   100.00 Ry     beta= 0.70
     Davidson diagonalization with overlap
     ethr =  3.99E-13,  avg # of iterations =  7.6

     total cpu time spent up to now is      236.0 secs

     End of self-consistent calculation

          k = 0.0000 0.0000 0.0000 ( 24781 PWs)   bands (ev):

   -24.0900 -24.0820  -9.5980  -9.5163  -9.3363  -9.3004  -9.2685  -9.2102
    -6.1049  -5.1849  -4.5515  -4.3987  -1.7867  -0.9001  -0.8521  -0.5027
    -0.1245  -0.1042  -0.0704   0.0577   0.2200   0.6052   0.6249   0.6631

          k = 0.0000 0.0000 0.3614 ( 24802 PWs)   bands (ev):

   -24.0828 -24.0772  -9.5084  -9.5063  -9.4827  -9.4535  -9.3196  -9.2999
    -5.6260  -4.9395  -4.7121  -4.6134  -1.4160  -1.1689  -0.7105  -0.6715
    -0.5299  -0.4180  -0.0636   0.2134   0.4132   0.4410   0.5181   0.6611

          k = 0.0000 0.0000-0.7229 ( 24864 PWs)   bands (ev):

   -24.0740 -24.0740  -9.7131  -9.7130  -9.3727  -9.3727  -9.3294  -9.3294
    -4.9389  -4.9385  -4.8539  -4.8534  -1.1777  -1.1772  -1.1629  -1.1614
    -0.1390  -0.1385  -0.0846  -0.0828   0.4780   0.4781   0.4933   0.4937

          k = 0.0000 0.2437 0.0000 ( 24826 PWs)   bands (ev):

   -24.0888 -24.0832  -9.5703  -9.4882  -9.3847  -9.3329  -9.2597  -9.2186
    -5.9137  -5.0995  -4.8227  -4.5224  -1.4393  -1.0310  -0.9759  -0.2179
    -0.2082  -0.1948   0.1011   0.2173   0.2909   0.3064   0.5203   0.5972

          k = 0.0000 0.2437 0.3614 ( 24832 PWs)   bands (ev):

   -24.0820 -24.0780  -9.5493  -9.5117  -9.4395  -9.4279  -9.3277  -9.3200
    -5.5227  -5.0095  -4.7544  -4.6533  -1.2304  -1.1925  -0.9910  -0.4418
    -0.4023  -0.2174  -0.1993   0.2639   0.3444   0.3835   0.4910   0.5460

          k = 0.0000 0.2437-0.7229 ( 24838 PWs)   bands (ev):

   -24.0740 -24.0740  -9.7259  -9.7257  -9.3557  -9.3557  -9.3287  -9.3287
    -5.2017  -5.2017  -4.5813  -4.5812  -1.2921  -1.2914  -0.9956  -0.9948
    -0.0713  -0.0712  -0.0407  -0.0391   0.3145   0.3145   0.4871   0.4874

          k = 0.0000-0.4873 0.0000 ( 24826 PWs)   bands (ev):

   -24.0860 -24.0860  -9.4934  -9.4934  -9.4070  -9.4070  -9.2390  -9.2390
    -5.4327  -5.4327  -4.7972  -4.7972  -1.1485  -1.1485  -0.5222  -0.5222
    -0.2833  -0.2833   0.2022   0.2022   0.3395   0.3395   0.4591   0.4591

          k = 0.0000-0.4873 0.3614 ( 24858 PWs)   bands (ev):

   -24.0800 -24.0800  -9.5479  -9.5479  -9.3892  -9.3892  -9.3537  -9.3537
    -5.2647  -5.2647  -4.7285  -4.7285  -1.1740  -1.1740  -0.7696  -0.7696
    -0.1708  -0.1708   0.1096   0.1096   0.2562   0.2562   0.4679   0.4679

          k = 0.0000-0.4873-0.7229 ( 24824 PWs)   bands (ev):

   -24.0740 -24.0740  -9.7375  -9.7375  -9.3418  -9.3418  -9.3258  -9.3258
    -5.3243  -5.3243  -4.4490  -4.4490  -1.3796  -1.3796  -0.7615  -0.7615
    -0.1433  -0.1433   0.0384   0.0384   0.1245   0.1245   0.5231   0.5231

          k = 0.2499 0.0000 0.0000 ( 24753 PWs)   bands (ev):

   -24.0888 -24.0831  -9.5618  -9.4984  -9.3763  -9.3476  -9.2598  -9.2186
    -5.9225  -5.2213  -4.5872  -4.5458  -1.6001  -0.7644  -0.7621  -0.6233
    -0.0861  -0.0539   0.0165   0.0752   0.1772   0.1935   0.5713   0.6086

          k = 0.2499 0.0000 0.3614 ( 24822 PWs)   bands (ev):

   -24.0820 -24.0780  -9.5405  -9.5227  -9.4663  -9.4057  -9.3426  -9.3086
    -5.4824  -4.9292  -4.7415  -4.7383  -1.3844  -1.1502  -0.9954  -0.4974
    -0.4758  -0.2148   0.0090   0.1432   0.2731   0.4044   0.5883   0.6155

          k = 0.2499 0.0000-0.7229 ( 24816 PWs)   bands (ev):

   -24.0740 -24.0740  -9.7301  -9.7300  -9.3603  -9.3603  -9.3262  -9.3262
    -5.0077  -5.0073  -4.7566  -4.7562  -1.6338  -1.6334  -0.7397  -0.7393
    -0.1508  -0.1504   0.1637   0.1651   0.2901   0.2902   0.5282   0.5286

          k = 0.2499 0.2437 0.0000 ( 24786 PWs)   bands (ev):

   -24.0880 -24.0840  -9.5869  -9.4763  -9.4235  -9.3067  -9.2535  -9.2243
    -5.7838  -5.1815  -4.8139  -4.5839  -1.3224  -0.9998  -0.7817  -0.3300
    -0.2539  -0.2096   0.0779   0.2267   0.2383   0.3193   0.3848   0.5293

          k = 0.2499 0.2437 0.3614 ( 24819 PWs)   bands (ev):

   -24.0814 -24.0786  -9.5423  -9.5055  -9.5004  -9.3883  -9.3514  -9.3028
    -5.3958  -4.9611  -4.8353  -4.7300  -1.3479  -1.1063  -1.0275  -0.4874
    -0.3239  -0.1539  -0.0538   0.1609   0.2552   0.3669   0.5121   0.5948

          k = 0.2499 0.2437-0.7229 ( 24832 PWs)   bands (ev):

   -24.0740 -24.0740  -9.7368  -9.7148  -9.3795  -9.3433  -9.3329  -9.3268
    -5.2096  -5.0413  -4.7161  -4.5434  -1.6102  -1.5338  -0.8061  -0.7110
    -0.1953  -0.1945   0.1381   0.1930   0.3097   0.3468   0.4786   0.5085

          k = 0.2499-0.4873 0.0000 ( 24842 PWs)   bands (ev):

   -24.0859 -24.0859  -9.5627  -9.5627  -9.3386  -9.3386  -9.2386  -9.2386
    -5.4304  -5.4304  -4.7906  -4.7906  -1.0547  -1.0547  -0.5331  -0.5331
    -0.3184  -0.3184   0.1415   0.1415   0.3740   0.3740   0.3911   0.3911

          k = 0.2499-0.4873 0.3614 ( 24820 PWs)   bands (ev):

   -24.0800 -24.0800  -9.5374  -9.5374  -9.4445  -9.4445  -9.3156  -9.3156
    -5.1793  -5.1793  -4.7966  -4.7966  -1.2576  -1.2576  -0.7092  -0.7092
    -0.1838  -0.1838   0.1297   0.1297   0.2655   0.2655   0.4860   0.4860

          k = 0.2499-0.4873-0.7229 ( 24824 PWs)   bands (ev):

   -24.0740 -24.0740  -9.7225  -9.7225  -9.3632  -9.3632  -9.3320  -9.3320
    -5.2223  -5.2223  -4.5241  -4.5241  -1.5018  -1.5018  -0.8239  -0.8239
    -0.0855  -0.0855   0.0422   0.0422   0.3334   0.3334   0.4990   0.4990

          k =-0.4997 0.0000 0.0000 ( 24784 PWs)   bands (ev):

   -24.0859 -24.0859  -9.4741  -9.4741  -9.4341  -9.4341  -9.2390  -9.2390
    -5.5092  -5.5092  -4.6442  -4.6442  -1.1873  -1.1873  -0.4123  -0.4123
    -0.0477  -0.0477  -0.0413  -0.0413   0.0601   0.0601   0.4643   0.4643

          k =-0.4997 0.0000 0.3614 ( 24804 PWs)   bands (ev):

   -24.0800 -24.0800  -9.5510  -9.5510  -9.4090  -9.4090  -9.3411  -9.3411
    -5.1451  -5.1451  -4.8010  -4.8010  -1.3070  -1.3070  -0.7648  -0.7648
    -0.1883  -0.1883  -0.0004  -0.0004   0.3692   0.3692   0.5748   0.5748

          k =-0.4997 0.0000-0.7229 ( 24872 PWs)   bands (ev):

   -24.0740 -24.0740  -9.7459  -9.7459  -9.3505  -9.3505  -9.3215  -9.3215
    -5.0454  -5.0454  -4.6880  -4.6880  -1.8408  -1.8408  -0.4606  -0.4606
    -0.1588  -0.1588   0.0128   0.0128   0.4724   0.4724   0.4905   0.4905

          k =-0.4997 0.2437 0.0000 ( 24800 PWs)   bands (ev):

   -24.0859 -24.0859  -9.5613  -9.5613  -9.3439  -9.3439  -9.2387  -9.2387
    -5.4727  -5.4727  -4.7102  -4.7102  -1.0858  -1.0858  -0.4189  -0.4189
    -0.2522  -0.2522  -0.0761  -0.0761   0.2857   0.2857   0.4438   0.4438

          k =-0.4997 0.2437 0.3614 ( 24830 PWs)   bands (ev):

   -24.0799 -24.0799  -9.5394  -9.5394  -9.4488  -9.4488  -9.3144  -9.3144
    -5.1018  -5.1018  -4.8503  -4.8503  -1.3122  -1.3122  -0.7412  -0.7412
    -0.1528  -0.1528   0.0476   0.0476   0.3604   0.3604   0.5092   0.5092

          k =-0.4997 0.2437-0.7229 ( 24824 PWs)   bands (ev):

   -24.0739 -24.0739  -9.7270  -9.7270  -9.3657  -9.3657  -9.3312  -9.3312
    -5.0684  -5.0684  -4.6579  -4.6579  -1.7427  -1.7427  -0.6641  -0.6641
    -0.1128  -0.1128   0.0799   0.0799   0.4141   0.4141   0.5485   0.5485

          k =-0.4997-0.4873 0.0000 ( 24832 PWs)   bands (ev):

   -24.0859 -24.0859  -9.6036  -9.6036  -9.2986  -9.2986  -9.2383  -9.2383
    -5.4298  -5.4298  -4.7815  -4.7815  -0.9400  -0.9400  -0.5662  -0.5662
    -0.3502  -0.3502   0.1134   0.1134   0.2907   0.2907   0.4052   0.4052

          k =-0.4997-0.4873 0.3614 ( 24800 PWs)   bands (ev):

   -24.0799 -24.0799  -9.5168  -9.5168  -9.4891  -9.4891  -9.2984  -9.2984
    -5.0279  -5.0279  -4.9298  -4.9298  -1.2991  -1.2991  -0.7847  -0.7847
    -0.0012  -0.0012   0.1309   0.1309   0.2748   0.2748   0.4168   0.4168

          k =-0.4997-0.4873-0.7229 ( 24872 PWs)   bands (ev):

   -24.0739 -24.0739  -9.7056  -9.7056  -9.3869  -9.3869  -9.3374  -9.3374
    -5.0890  -5.0890  -4.6300  -4.6300  -1.5906  -1.5906  -0.9483  -0.9483
     0.1041   0.1041   0.1475   0.1475   0.2940   0.2940   0.5183   0.5183

     highest occupied level (ev):     0.6631

!    total energy              =    -156.47376961 Ry
     estimated scf accuracy    <          9.9E-12 Ry

     The total energy is the sum of the following terms:
     one-electron contribution =     -23.70183460 Ry
     hartree contribution      =      25.95523731 Ry
     xc contribution           =     -49.07188364 Ry
     ewald contribution        =    -109.65528869 Ry

     convergence has been achieved in   8 iterations

     Forces acting on atoms (cartesian axes, Ry/au):

     atom    1 type  2   force =     0.00000000    0.00000000    0.00000561
     atom    2 type  2   force =     0.00000000    0.00000000   -0.00000561
     atom    3 type  1   force =     0.00026100    0.00061476   -0.00000872
     atom    4 type  1   force =    -0.00026100   -0.00061476   -0.00000872
     atom    5 type  1   force =     0.00026100   -0.00061476    0.00000872
     atom    6 type  1   force =    -0.00026100    0.00061476    0.00000872
     atom    7 type  3   force =     0.00058403    0.00017731   -0.00001636
     atom    8 type  3   force =    -0.00058403   -0.00017731   -0.00001636
     atom    9 type  3   force =     0.00058403   -0.00017731    0.00001636
     atom   10 type  3   force =    -0.00058403    0.00017731    0.00001636
     atom   11 type  3   force =    -0.00025606    0.00032174    0.00000268
     atom   12 type  3   force =     0.00025606   -0.00032174    0.00000268
     atom   13 type  3   force =    -0.00025606   -0.00032174   -0.00000268
     atom   14 type  3   force =     0.00025606    0.00032174   -0.00000268
     atom   15 type  3   force =     0.00027060    0.00043106    0.00014249
     atom   16 type  3   force =    -0.00027060   -0.00043106    0.00014249
     atom   17 type  3   force =     0.00027060   -0.00043106   -0.00014249
     atom   18 type  3   force =    -0.00027060    0.00043106   -0.00014249
     atom   19 type  3   force =    -0.00023425   -0.00044221   -0.00014949
     atom   20 type  3   force =     0.00023425    0.00044221   -0.00014949
     atom   21 type  3   force =    -0.00023425    0.00044221    0.00014949
     atom   22 type  3   force =     0.00023425   -0.00044221    0.00014949

     Total force =     0.002482     Total SCF correction =     0.000000


     Computing stress (Cartesian axis) and pressure

          total   stress  (Ry/bohr**3)                   (kbar)     P=       -7.76
  -0.00004910   0.00000000   0.00000000           -7.22        0.00        0.00
   0.00000000  -0.00004932   0.00000000            0.00       -7.26        0.00
   0.00000000   0.00000000  -0.00005992            0.00        0.00       -8.81

     Volume is kept fixed: isostatic pressure set to zero
     Energy error            =      5.6E-04 Ry
     Gradient error          =      6.1E-04 Ry/Bohr
     Cell gradient error     =      1.1E+00 kbar

     number of scf cycles    =   3
     number of bfgs steps    =   2

     enthalpy           old  =    -156.4732094150 Ry
     enthalpy           new  =    -156.4737696098 Ry

     CASE: enthalpy          _new < enthalpy          _old

     new trust radius        =       0.0017424561 bohr
ibrav =      8
 celldm(1) =     12.75297141
 celldm(2) =      1.02542872
 celldm(3) =      0.69105485
Input lattice vectors:
     1.00069186     0.00000000     0.00000000
     0.00000000     1.02613817     0.00000000
     0.00000000     0.00000000     0.69153297
New lattice vectors in INITIAL alat:
     1.00069186     0.00000000     0.00000000
     0.00000000     1.02613817     0.00000000
     0.00000000     0.00000000     0.69153297
New lattice vectors in NEW alat (for information only):
     1.00000000     0.00000000     0.00000000
     0.00000000     1.02542872     0.00000000
     0.00000000     0.00000000     0.69105485
Discrepancy in bohr =     0.000000    0.000000    0.000000
     new conv_thr            =            5.6E-11 Ry

     new unit-cell volume =   1469.77940 a.u.^3 (   217.79884 Ang^3 )
     density =      2.54667 g/cm^3

CELL_PARAMETERS (alat= 12.74415427)
   1.000691858   0.000000000   0.000000000
   0.000000000   1.026138166   0.000000000
   0.000000000   0.000000000   0.691532966

ATOMIC_POSITIONS (crystal)
Ba               0.5000000000        0.5000000000        0.5001039614
Ba               0.0000000000        0.0000000000        0.9998960386
B                0.6103410232        0.2395163355        0.0000598579
B                0.3896589768        0.7604836645        0.0000598579
B                0.1103410232        0.2604836645        0.4999401421
B                0.8896589768        0.7395163355        0.4999401421
H                0.4357591779        0.2917952513        0.0002216997
H                0.5642408221        0.7082047487        0.0002216997
H                0.9357591779        0.2082047487        0.4997783003
H                0.0642408221        0.7917952513        0.4997783003
H                0.7209716604        0.3823722817       -0.0000057299
H                0.2790283396        0.6176277183       -0.0000057299
H                0.2209716604        0.1176277183        0.5000057299
H                0.7790283396        0.8823722817        0.5000057299
H                0.6391066895        0.1430479456        0.7825345534
H                0.3608933105        0.8569520544        0.7825345534
H                0.1391066895        0.3569520544        0.7174654466
H                0.8608933105        0.6430479456        0.7174654466
H                0.3606926309        0.8569965482        0.2174845727
H                0.6393073691        0.1430034518        0.2174845727
H                0.8606926309        0.6430034518        0.2825154273
H                0.1393073691        0.3569965482        0.2825154273



     Writing config-only to output data dir ./pwscf.save/ :
     XML data file
     NEW-OLD atomic charge density approx. for the potential

     total cpu time spent up to now is      244.6 secs

     Self-consistent Calculation

     iteration #  1     ecut=   100.00 Ry     beta= 0.70
     Davidson diagonalization with overlap
     ethr =  1.00E-06,  avg # of iterations =  2.0

     Threshold (ethr) on eigenvalues was too large:
     Diagonalizing with lowered threshold

     Davidson diagonalization with overlap
     ethr =  4.01E-09,  avg # of iterations =  3.0

     total cpu time spent up to now is      258.5 secs

     total energy              =    -156.47377885 Ry
     estimated scf accuracy    <       0.00000408 Ry

     iteration #  2     ecut=   100.00 Ry     beta= 0.70
     Davidson diagonalization with overlap
     ethr =  8.49E-09,  avg # of iterations =  2.0

     total cpu time spent up to now is      265.2 secs

     total energy              =    -156.47377996 Ry
     estimated scf accuracy    <       0.00000073 Ry

     iteration #  3     ecut=   100.00 Ry     beta= 0.70
     Davidson diagonalization with overlap
     ethr =  1.51E-09,  avg # of iterations =  2.0

     total cpu time spent up to now is      271.9 secs

     total energy              =    -156.47378006 Ry
     estimated scf accuracy    <       0.00000001 Ry

     iteration #  4     ecut=   100.00 Ry     beta= 0.70
     Davidson diagonalization with overlap
     ethr =  2.48E-11,  avg # of iterations =  3.0

     total cpu time spent up to now is      280.0 secs

     total energy              =    -156.47378007 Ry
     estimated scf accuracy    <          5.2E-09 Ry

     iteration #  5     ecut=   100.00 Ry     beta= 0.70
     Davidson diagonalization with overlap
     ethr =  1.09E-11,  avg # of iterations =  2.2

     total cpu time spent up to now is      286.7 secs

     End of self-consistent calculation

          k = 0.0000 0.0000 0.0000 ( 24781 PWs)   bands (ev):

   -24.0905 -24.0825  -9.5988  -9.5170  -9.3369  -9.3009  -9.2689  -9.2107
    -6.1068  -5.1879  -4.5543  -4.4018  -1.7877  -0.9016  -0.8530  -0.5055
    -0.1250  -0.1064  -0.0698   0.0571   0.2203   0.6026   0.6224   0.6594

          k = 0.0000 0.0000 0.3615 ( 24802 PWs)   bands (ev):

   -24.0833 -24.0776  -9.5091  -9.5073  -9.4837  -9.4541  -9.3202  -9.3004
    -5.6275  -4.9419  -4.7153  -4.6168  -1.4163  -1.1696  -0.7114  -0.6730
    -0.5306  -0.4183  -0.0651   0.2118   0.4109   0.4381   0.5163   0.6579

          k = 0.0000 0.0000-0.7230 ( 24864 PWs)   bands (ev):

   -24.0745 -24.0745  -9.7145  -9.7143  -9.3731  -9.3731  -9.3299  -9.3299
    -4.9406  -4.9401  -4.8575  -4.8570  -1.1774  -1.1769  -1.1635  -1.1620
    -0.1409  -0.1403  -0.0861  -0.0842   0.4750   0.4750   0.4911   0.4915

          k = 0.0000 0.2436 0.0000 ( 24826 PWs)   bands (ev):

   -24.0893 -24.0836  -9.5711  -9.4889  -9.3853  -9.3335  -9.2602  -9.2191
    -5.9157  -5.1027  -4.8250  -4.5255  -1.4408  -1.0321  -0.9772  -0.2179
    -0.2079  -0.1976   0.0985   0.2170   0.2877   0.3064   0.5178   0.5946

          k = 0.0000 0.2436 0.3615 ( 24832 PWs)   bands (ev):

   -24.0825 -24.0785  -9.5501  -9.5126  -9.4403  -9.4285  -9.3283  -9.3205
    -5.5244  -5.0120  -4.7573  -4.6565  -1.2309  -1.1931  -0.9919  -0.4421
    -0.4033  -0.2194  -0.2002   0.2621   0.3421   0.3805   0.4891   0.5434

          k = 0.0000 0.2436-0.7230 ( 24838 PWs)   bands (ev):

   -24.0744 -24.0744  -9.7272  -9.7271  -9.3561  -9.3561  -9.3292  -9.3292
    -5.2042  -5.2042  -4.5839  -4.5838  -1.2926  -1.2919  -0.9953  -0.9946
    -0.0733  -0.0732  -0.0424  -0.0408   0.3126   0.3126   0.4841   0.4843

          k = 0.0000-0.4873 0.0000 ( 24826 PWs)   bands (ev):

   -24.0865 -24.0865  -9.4942  -9.4942  -9.4075  -9.4075  -9.2394  -9.2394
    -5.4351  -5.4351  -4.8000  -4.8000  -1.1497  -1.1497  -0.5245  -0.5245
    -0.2831  -0.2831   0.1992   0.1992   0.3392   0.3392   0.4567   0.4567

          k = 0.0000-0.4873 0.3615 ( 24858 PWs)   bands (ev):

   -24.0805 -24.0805  -9.5487  -9.5487  -9.3899  -9.3899  -9.3543  -9.3543
    -5.2669  -5.2669  -4.7315  -4.7315  -1.1745  -1.1745  -0.7705  -0.7705
    -0.1721  -0.1721   0.1085   0.1085   0.2530   0.2530   0.4659   0.4659

          k = 0.0000-0.4873-0.7230 ( 24824 PWs)   bands (ev):

   -24.0744 -24.0744  -9.7388  -9.7388  -9.3423  -9.3423  -9.3264  -9.3264
    -5.3269  -5.3269  -4.4515  -4.4515  -1.3801  -1.3801  -0.7612  -0.7612
    -0.1456  -0.1456   0.0368   0.0368   0.1224   0.1224   0.5202   0.5202

          k = 0.2498 0.0000 0.0000 ( 24753 PWs)   bands (ev):

   -24.0893 -24.0836  -9.5626  -9.4991  -9.3769  -9.3481  -9.2602  -9.2191
    -5.9245  -5.2242  -4.5900  -4.5487  -1.6012  -0.7664  -0.7630  -0.6252
    -0.0858  -0.0541   0.0164   0.0723   0.1772   0.1916   0.5685   0.6049

          k = 0.2498 0.0000 0.3615 ( 24822 PWs)   bands (ev):

   -24.0825 -24.0785  -9.5413  -9.5235  -9.4671  -9.4063  -9.3432  -9.3092
    -5.4841  -4.9316  -4.7446  -4.7415  -1.3844  -1.1511  -0.9955  -0.4985
    -0.4773  -0.2157   0.0071   0.1411   0.2718   0.4024   0.5851   0.6132

          k = 0.2498 0.0000-0.7230 ( 24816 PWs)   bands (ev):

   -24.0744 -24.0744  -9.7315  -9.7314  -9.3607  -9.3607  -9.3267  -9.3267
    -5.0107  -5.0103  -4.7589  -4.7585  -1.6336  -1.6331  -0.7400  -0.7397
    -0.1526  -0.1523   0.1618   0.1633   0.2876   0.2876   0.5257   0.5261

          k = 0.2498 0.2436 0.0000 ( 24786 PWs)   bands (ev):

   -24.0884 -24.0844  -9.5876  -9.4771  -9.4240  -9.3073  -9.2539  -9.2248
    -5.7860  -5.1847  -4.8163  -4.5867  -1.3239  -1.0011  -0.7832  -0.3320
    -0.2537  -0.2094   0.0753   0.2264   0.2353   0.3190   0.3822   0.5264

          k = 0.2498 0.2436 0.3615 ( 24819 PWs)   bands (ev):

   -24.0819 -24.0790  -9.5431  -9.5065  -9.5010  -9.3891  -9.3519  -9.3034
    -5.3976  -4.9636  -4.8380  -4.7331  -1.3480  -1.1066  -1.0286  -0.4886
    -0.3254  -0.1550  -0.0555   0.1593   0.2527   0.3647   0.5099   0.5924

          k = 0.2498 0.2436-0.7230 ( 24832 PWs)   bands (ev):

   -24.0744 -24.0744  -9.7381  -9.7161  -9.3799  -9.3437  -9.3334  -9.3273
    -5.2125  -5.0441  -4.7186  -4.5458  -1.6101  -1.5336  -0.8066  -0.7112
    -0.1972  -0.1966   0.1367   0.1913   0.3065   0.3446   0.4769   0.5052

          k = 0.2498-0.4873 0.0000 ( 24842 PWs)   bands (ev):

   -24.0864 -24.0864  -9.5634  -9.5634  -9.3392  -9.3392  -9.2391  -9.2391
    -5.4331  -5.4331  -4.7931  -4.7931  -1.0561  -1.0561  -0.5352  -0.5352
    -0.3181  -0.3181   0.1389   0.1389   0.3736   0.3736   0.3884   0.3884

          k = 0.2498-0.4873 0.3615 ( 24820 PWs)   bands (ev):

   -24.0804 -24.0804  -9.5382  -9.5382  -9.4453  -9.4453  -9.3161  -9.3161
    -5.1815  -5.1815  -4.7994  -4.7994  -1.2578  -1.2578  -0.7106  -0.7106
    -0.1850  -0.1850   0.1280   0.1280   0.2629   0.2629   0.4841   0.4841

          k = 0.2498-0.4873-0.7230 ( 24824 PWs)   bands (ev):

   -24.0744 -24.0744  -9.7238  -9.7238  -9.3636  -9.3636  -9.3325  -9.3325
    -5.2250  -5.2250  -4.5266  -4.5266  -1.5018  -1.5018  -0.8242  -0.8242
    -0.0876  -0.0876   0.0405   0.0405   0.3310   0.3310   0.4965   0.4965

          k =-0.4997 0.0000 0.0000 ( 24784 PWs)   bands (ev):

   -24.0864 -24.0864  -9.4749  -9.4749  -9.4345  -9.4345  -9.2394  -9.2394
    -5.5118  -5.5118  -4.6470  -4.6470  -1.1888  -1.1888  -0.4135  -0.4135
    -0.0472  -0.0472  -0.0438  -0.0438   0.0596   0.0596   0.4608   0.4608

          k =-0.4997 0.0000 0.3615 ( 24804 PWs)   bands (ev):

   -24.0804 -24.0804  -9.5518  -9.5518  -9.4096  -9.4096  -9.3416  -9.3416
    -5.1473  -5.1473  -4.8040  -4.8040  -1.3069  -1.3069  -0.7662  -0.7662
    -0.1898  -0.1898  -0.0022  -0.0022   0.3677   0.3677   0.5719   0.5719

          k =-0.4997 0.0000-0.7230 ( 24872 PWs)   bands (ev):

   -24.0744 -24.0744  -9.7472  -9.7472  -9.3510  -9.3510  -9.3220  -9.3220
    -5.0488  -5.0488  -4.6899  -4.6899  -1.8404  -1.8404  -0.4611  -0.4611
    -0.1606  -0.1606   0.0107   0.0107   0.4706   0.4706   0.4875   0.4875

          k =-0.4997 0.2436 0.0000 ( 24800 PWs)   bands (ev):

   -24.0864 -24.0864  -9.5620  -9.5620  -9.3445  -9.3445  -9.2391  -9.2391
    -5.4754  -5.4754  -4.7127  -4.7127  -1.0874  -1.0874  -0.4206  -0.4206
    -0.2519  -0.2519  -0.0782  -0.0782   0.2854   0.2854   0.4406   0.4406

          k =-0.4997 0.2436 0.3615 ( 24830 PWs)   bands (ev):

   -24.0804 -24.0804  -9.5402  -9.5402  -9.4495  -9.4495  -9.3150  -9.3150
    -5.1041  -5.1041  -4.8531  -4.8531  -1.3122  -1.3122  -0.7425  -0.7425
    -0.1545  -0.1545   0.0459   0.0459   0.3588   0.3588   0.5066   0.5066

          k =-0.4997 0.2436-0.7230 ( 24824 PWs)   bands (ev):

   -24.0744 -24.0744  -9.7283  -9.7283  -9.3661  -9.3661  -9.3317  -9.3317
    -5.0715  -5.0715  -4.6600  -4.6600  -1.7423  -1.7423  -0.6646  -0.6646
    -0.1148  -0.1148   0.0780   0.0780   0.4114   0.4114   0.5463   0.5463

          k =-0.4997-0.4873 0.0000 ( 24832 PWs)   bands (ev):

   -24.0864 -24.0864  -9.6042  -9.6042  -9.2992  -9.2992  -9.2388  -9.2388
    -5.4327  -5.4327  -4.7837  -4.7837  -0.9422  -0.9422  -0.5676  -0.5676
    -0.3499  -0.3499   0.1106   0.1106   0.2882   0.2882   0.4048   0.4048

          k =-0.4997-0.4873 0.3615 ( 24800 PWs)   bands (ev):

   -24.0804 -24.0804  -9.5174  -9.5174  -9.4900  -9.4900  -9.2990  -9.2990
    -5.0305  -5.0305  -4.9324  -4.9324  -1.2992  -1.2992  -0.7858  -0.7858
    -0.0028  -0.0028   0.1286   0.1286   0.2724   0.2724   0.4154   0.4154

          k =-0.4997-0.4873-0.7230 ( 24872 PWs)   bands (ev):

   -24.0744 -24.0744  -9.7070  -9.7070  -9.3873  -9.3873  -9.3379  -9.3379
    -5.0919  -5.0919  -4.6323  -4.6323  -1.5904  -1.5904  -0.9486  -0.9486
     0.1025   0.1025   0.1448   0.1448   0.2911   0.2911   0.5166   0.5166

     highest occupied level (ev):     0.6594

!    total energy              =    -156.47378007 Ry
     estimated scf accuracy    <          3.4E-11 Ry

     The total energy is the sum of the following terms:
     one-electron contribution =     -23.74090656 Ry
     hartree contribution      =      25.97474029 Ry
     xc contribution           =     -49.07567446 Ry
     ewald contribution        =    -109.63193934 Ry

     convergence has been achieved in   5 iterations

     Forces acting on atoms (cartesian axes, Ry/au):

     atom    1 type  2   force =     0.00000000    0.00000000    0.00000422
     atom    2 type  2   force =     0.00000000    0.00000000   -0.00000422
     atom    3 type  1   force =     0.00025364    0.00049510   -0.00000793
     atom    4 type  1   force =    -0.00025364   -0.00049510   -0.00000793
     atom    5 type  1   force =     0.00025364   -0.00049510    0.00000793
     atom    6 type  1   force =    -0.00025364    0.00049510    0.00000793
     atom    7 type  3   force =     0.00025763    0.00026719   -0.00001671
     atom    8 type  3   force =    -0.00025763   -0.00026719   -0.00001671
     atom    9 type  3   force =     0.00025763   -0.00026719    0.00001671
     atom   10 type  3   force =    -0.00025763    0.00026719    0.00001671
     atom   11 type  3   force =    -0.00000992    0.00063022    0.00000222
     atom   12 type  3   force =     0.00000992   -0.00063022    0.00000222
     atom   13 type  3   force =    -0.00000992   -0.00063022   -0.00000222
     atom   14 type  3   force =     0.00000992    0.00063022   -0.00000222
     atom   15 type  3   force =     0.00032152    0.00028023   -0.00019369
     atom   16 type  3   force =    -0.00032152   -0.00028023   -0.00019369
     atom   17 type  3   force =     0.00032152   -0.00028023    0.00019369
     atom   18 type  3   force =    -0.00032152    0.00028023    0.00019369
     atom   19 type  3   force =    -0.00028729   -0.00028974    0.00018758
     atom   20 type  3   force =     0.00028729    0.00028974    0.00018758
     atom   21 type  3   force =    -0.00028729    0.00028974   -0.00018758
     atom   22 type  3   force =     0.00028729   -0.00028974   -0.00018758

     Total force =     0.002250     Total SCF correction =     0.000001


     Computing stress (Cartesian axis) and pressure

          total   stress  (Ry/bohr**3)                   (kbar)     P=       -7.30
  -0.00004635   0.00000000   0.00000000           -6.82        0.00        0.00
   0.00000000  -0.00004669   0.00000000            0.00       -6.87        0.00
   0.00000000   0.00000000  -0.00005574            0.00        0.00       -8.20

     Volume is kept fixed: isostatic pressure set to zero
     Energy error            =      1.0E-05 Ry
     Gradient error          =      6.3E-04 Ry/Bohr
     Cell gradient error     =      9.0E-01 kbar

     number of scf cycles    =   4
     number of bfgs steps    =   3

     enthalpy           old  =    -156.4737696098 Ry
     enthalpy           new  =    -156.4737800662 Ry

     CASE: enthalpy          _new < enthalpy          _old

     new trust radius        =       0.0026119431 bohr
ibrav =      8
 celldm(1) =     12.75525275
 celldm(2) =      1.02541110
 celldm(3) =      0.69069599
Input lattice vectors:
     1.00087087     0.00000000     0.00000000
     0.00000000     1.02630410     0.00000000
     0.00000000     0.00000000     0.69129749
New lattice vectors in INITIAL alat:
     1.00087087     0.00000000     0.00000000
     0.00000000     1.02630410     0.00000000
     0.00000000     0.00000000     0.69129749
New lattice vectors in NEW alat (for information only):
     1.00000000     0.00000000     0.00000000
     0.00000000     1.02541110     0.00000000
     0.00000000     0.00000000     0.69069599
Discrepancy in bohr =     0.000000    0.000000    0.000000
     new conv_thr            =            1.0E-12 Ry

     new unit-cell volume =   1469.77940 a.u.^3 (   217.79884 Ang^3 )
     density =      2.54667 g/cm^3

CELL_PARAMETERS (alat= 12.74415427)
   1.000870868   0.000000000   0.000000000
   0.000000000   1.026304102   0.000000000
   0.000000000   0.000000000   0.691297493

ATOMIC_POSITIONS (crystal)
Ba               0.5000000000        0.5000000000        0.5001050944
Ba               0.0000000000        0.0000000000        0.9998949056
B                0.6103815497        0.2396026876        0.0000579440
B                0.3896184503        0.7603973124        0.0000579440
B                0.1103815497        0.2603973124        0.4999420560
B                0.8896184503        0.7396026876        0.4999420560
H                0.4358548543        0.2918211256        0.0002178858
H                0.5641451457        0.7081788744        0.0002178858
H                0.9358548543        0.2081788744        0.4997821142
H                0.0641451457        0.7918211256        0.4997821142
H                0.7209310938        0.3824203457       -0.0000051509
H                0.2790689062        0.6175796543       -0.0000051509
H                0.2209310938        0.1175796543        0.5000051509
H                0.7790689062        0.8824203457        0.5000051509
H                0.6391488910        0.1431195083        0.7825667298
H                0.3608511090        0.8568804917        0.7825667298
H                0.1391488910        0.3568804917        0.7174332702
H                0.8608511090        0.6431195083        0.7174332702
H                0.3606560796        0.8569233690        0.2174509055
H                0.6393439204        0.1430766310        0.2174509055
H                0.8606560796        0.6430766310        0.2825490945
H                0.1393439204        0.3569233690        0.2825490945



     Writing config-only to output data dir ./pwscf.save/ :
     XML data file
     NEW-OLD atomic charge density approx. for the potential

     total cpu time spent up to now is      295.3 secs

     Self-consistent Calculation

     iteration #  1     ecut=   100.00 Ry     beta= 0.70
     Davidson diagonalization with overlap
     ethr =  1.00E-06,  avg # of iterations =  2.0

     Threshold (ethr) on eigenvalues was too large:
     Diagonalizing with lowered threshold

     Davidson diagonalization with overlap
     ethr =  4.04E-09,  avg # of iterations =  3.1

     total cpu time spent up to now is      309.3 secs

     total energy              =    -156.47379130 Ry
     estimated scf accuracy    <       0.00000278 Ry

     iteration #  2     ecut=   100.00 Ry     beta= 0.70
     Davidson diagonalization with overlap
     ethr =  5.79E-09,  avg # of iterations =  2.0

     total cpu time spent up to now is      316.1 secs

     total energy              =    -156.47379192 Ry
     estimated scf accuracy    <       0.00000029 Ry

     iteration #  3     ecut=   100.00 Ry     beta= 0.70
     Davidson diagonalization with overlap
     ethr =  5.95E-10,  avg # of iterations =  2.0

     total cpu time spent up to now is      322.8 secs

     total energy              =    -156.47379196 Ry
     estimated scf accuracy    <          7.7E-09 Ry

     iteration #  4     ecut=   100.00 Ry     beta= 0.70
     Davidson diagonalization with overlap
     ethr =  1.61E-11,  avg # of iterations =  5.0

     total cpu time spent up to now is      331.3 secs

     total energy              =    -156.47379197 Ry
     estimated scf accuracy    <          1.4E-09 Ry

     iteration #  5     ecut=   100.00 Ry     beta= 0.70
     Davidson diagonalization with overlap
     ethr =  3.01E-12,  avg # of iterations =  4.3

     total cpu time spent up to now is      339.5 secs

     total energy              =    -156.47379197 Ry
     estimated scf accuracy    <          3.3E-11 Ry

     iteration #  6     ecut=   100.00 Ry     beta= 0.70
     Davidson diagonalization with overlap
     ethr =  1.00E-13,  avg # of iterations =  5.1

     total cpu time spent up to now is      349.3 secs

     End of self-consistent calculation

          k = 0.0000 0.0000 0.0000 ( 24781 PWs)   bands (ev):

   -24.0903 -24.0823  -9.5991  -9.5172  -9.3371  -9.3010  -9.2687  -9.2107
    -6.1081  -5.1899  -4.5562  -4.4040  -1.7894  -0.9029  -0.8539  -0.5083
    -0.1246  -0.1091  -0.0680   0.0572   0.2218   0.6004   0.6205   0.6555

          k = 0.0000 0.0000 0.3616 ( 24802 PWs)   bands (ev):

   -24.0831 -24.0775  -9.5092  -9.5079  -9.4844  -9.4541  -9.3202  -9.3004
    -5.6282  -4.9431  -4.7176  -4.6194  -1.4170  -1.1705  -0.7127  -0.6742
    -0.5307  -0.4179  -0.0662   0.2108   0.4094   0.4352   0.5150   0.6548

          k = 0.0000 0.0000-0.7233 ( 24864 PWs)   bands (ev):

   -24.0743 -24.0743  -9.7158  -9.7156  -9.3729  -9.3728  -9.3299  -9.3299
    -4.9408  -4.9404  -4.8605  -4.8600  -1.1770  -1.1764  -1.1644  -1.1630
    -0.1421  -0.1416  -0.0871  -0.0853   0.4717   0.4718   0.4894   0.4897

          k = 0.0000 0.2436 0.0000 ( 24826 PWs)   bands (ev):

   -24.0892 -24.0835  -9.5715  -9.4892  -9.3855  -9.3335  -9.2600  -9.2190
    -5.9172  -5.1051  -4.8264  -4.5276  -1.4429  -1.0333  -0.9783  -0.2171
    -0.2065  -0.2003   0.0956   0.2175   0.2843   0.3072   0.5156   0.5926

          k = 0.0000 0.2436 0.3616 ( 24832 PWs)   bands (ev):

   -24.0823 -24.0783  -9.5505  -9.5131  -9.4407  -9.4286  -9.3284  -9.3204
    -5.5252  -5.0133  -4.7593  -4.6589  -1.2317  -1.1939  -0.9929  -0.4420
    -0.4039  -0.2212  -0.2007   0.2608   0.3402   0.3774   0.4879   0.5411

          k = 0.0000 0.2436-0.7233 ( 24838 PWs)   bands (ev):

   -24.0743 -24.0742  -9.7284  -9.7283  -9.3560  -9.3559  -9.3292  -9.3292
    -5.2058  -5.2058  -4.5854  -4.5854  -1.2934  -1.2928  -0.9950  -0.9943
    -0.0748  -0.0747  -0.0438  -0.0422   0.3111   0.3112   0.4810   0.4812

          k = 0.0000-0.4872 0.0000 ( 24826 PWs)   bands (ev):

   -24.0863 -24.0863  -9.4946  -9.4946  -9.4075  -9.4075  -9.2393  -9.2393
    -5.4369  -5.4369  -4.8018  -4.8018  -1.1511  -1.1511  -0.5269  -0.5269
    -0.2819  -0.2819   0.1961   0.1961   0.3398   0.3398   0.4547   0.4547

          k = 0.0000-0.4872 0.3616 ( 24858 PWs)   bands (ev):

   -24.0803 -24.0803  -9.5492  -9.5492  -9.3902  -9.3902  -9.3543  -9.3543
    -5.2680  -5.2680  -4.7335  -4.7335  -1.1753  -1.1753  -0.7714  -0.7714
    -0.1730  -0.1730   0.1080   0.1080   0.2498   0.2498   0.4645   0.4645

          k = 0.0000-0.4872-0.7233 ( 24824 PWs)   bands (ev):

   -24.0742 -24.0742  -9.7400  -9.7400  -9.3421  -9.3421  -9.3264  -9.3264
    -5.3286  -5.3286  -4.4529  -4.4529  -1.3810  -1.3810  -0.7608  -0.7608
    -0.1477  -0.1477   0.0356   0.0356   0.1206   0.1206   0.5175   0.5175

          k = 0.2498 0.0000 0.0000 ( 24753 PWs)   bands (ev):

   -24.0891 -24.0835  -9.5629  -9.4992  -9.3771  -9.3482  -9.2600  -9.2190
    -5.9261  -5.2263  -4.5920  -4.5507  -1.6030  -0.7687  -0.7638  -0.6268
    -0.0844  -0.0534   0.0171   0.0691   0.1781   0.1902   0.5661   0.6010

          k = 0.2498 0.0000 0.3616 ( 24822 PWs)   bands (ev):

   -24.0823 -24.0783  -9.5417  -9.5240  -9.4674  -9.4066  -9.3432  -9.3092
    -5.4850  -4.9330  -4.7469  -4.7439  -1.3845  -1.1522  -0.9958  -0.4995
    -0.4785  -0.2161   0.0054   0.1393   0.2711   0.4009   0.5818   0.6114

          k = 0.2498 0.0000-0.7233 ( 24816 PWs)   bands (ev):

   -24.0742 -24.0742  -9.7326  -9.7325  -9.3606  -9.3605  -9.3267  -9.3267
    -5.0128  -5.0124  -4.7600  -4.7597  -1.6336  -1.6331  -0.7404  -0.7401
    -0.1538  -0.1535   0.1603   0.1617   0.2851   0.2851   0.5235   0.5238

          k = 0.2498 0.2436 0.0000 ( 24786 PWs)   bands (ev):

   -24.0883 -24.0843  -9.5879  -9.4774  -9.4240  -9.3074  -9.2538  -9.2247
    -5.7877  -5.1872  -4.8177  -4.5886  -1.3261  -1.0026  -0.7845  -0.3340
    -0.2524  -0.2082   0.0727   0.2270   0.2322   0.3196   0.3801   0.5236

          k = 0.2498 0.2436 0.3616 ( 24819 PWs)   bands (ev):

   -24.0817 -24.0789  -9.5436  -9.5071  -9.5011  -9.3894  -9.3519  -9.3034
[...]
     1.00854207     0.00000000     0.00000000
     0.00000000     1.02507432     0.00000000
     0.00000000     0.00000000     0.68686236
New lattice vectors in INITIAL alat:
     1.00854207     0.00000000     0.00000000
     0.00000000     1.02507432     0.00000000
     0.00000000     0.00000000     0.68686236
New lattice vectors in NEW alat (for information only):
     1.00000000     0.00000000     0.00000000
     0.00000000     1.01639223     0.00000000
     0.00000000     0.00000000     0.68104483
Discrepancy in bohr =     0.000000    0.000000    0.000000
     new conv_thr            =            1.0E-12 Ry

     new unit-cell volume =   1469.77940 a.u.^3 (   217.79884 Ang^3 )
     density =      2.54667 g/cm^3

CELL_PARAMETERS (alat= 12.74415427)
   1.008542072   0.000000000   0.000000000
   0.000000000   1.025074323   0.000000000
   0.000000000   0.000000000   0.686862365

ATOMIC_POSITIONS (crystal)
Ba               0.5000000000        0.5000000000        0.5000215020
Ba               0.0000000000        0.0000000000        0.9999784980
B                0.6150581224        0.2429114396       -0.0000067241
B                0.3849418776        0.7570885604       -0.0000067241
B                0.1150581224        0.2570885604        0.5000067241
B                0.8849418776        0.7429114396        0.5000067241
H                0.4405178971        0.2905294963       -0.0000233624
H                0.5594821029        0.7094705037       -0.0000233624
H                0.9405178971        0.2094705037        0.5000233624
H                0.0594821029        0.7905294963        0.5000233624
H                0.7205738770        0.3889445518        0.0000206105
H                0.2794261230        0.6110554482        0.0000206105
H                0.2205738770        0.1110554482        0.4999793895
H                0.7794261230        0.8889445518        0.4999793895
H                0.6463238532        0.1474993965        0.7806983551
H                0.3536761468        0.8525006035        0.7806983551
H                0.1463238532        0.3525006035        0.7193016449
H                0.8536761468        0.6474993965        0.7193016449
H                0.3536918270        0.8524861510        0.2193012326
H                0.6463081730        0.1475138490        0.2193012326
H                0.8536918270        0.6475138490        0.2806987674
H                0.1463081730        0.3524861510        0.2806987674



     Writing config-only to output data dir ./pwscf.save/ :
     XML data file
     NEW-OLD atomic charge density approx. for the potential

     total cpu time spent up to now is     3614.8 secs

     Self-consistent Calculation

     iteration #  1     ecut=   100.00 Ry     beta= 0.70
     Davidson diagonalization with overlap
     ethr =  1.00E-06,  avg # of iterations =  1.0

     Threshold (ethr) on eigenvalues was too large:
     Diagonalizing with lowered threshold

     Davidson diagonalization with overlap
     ethr =  1.06E-12,  avg # of iterations =  4.4

     total cpu time spent up to now is     3629.3 secs

     total energy              =    -156.47420830 Ry
     estimated scf accuracy    <          1.6E-10 Ry

     iteration #  2     ecut=   100.00 Ry     beta= 0.70
     Davidson diagonalization with overlap
     ethr =  3.36E-13,  avg # of iterations =  2.0

     total cpu time spent up to now is     3636.0 secs

     total energy              =    -156.47420830 Ry
     estimated scf accuracy    <          1.7E-11 Ry

     iteration #  3     ecut=   100.00 Ry     beta= 0.70
     Davidson diagonalization with overlap
     ethr =  1.00E-13,  avg # of iterations =  2.0

     total cpu time spent up to now is     3642.2 secs

     End of self-consistent calculation

          k = 0.0000 0.0000 0.0000 ( 24781 PWs)   bands (ev):

   -24.0567 -24.0487  -9.5879  -9.5104  -9.3182  -9.2791  -9.2422  -9.1829
    -6.1254  -5.2041  -4.5612  -4.4367  -1.8211  -0.9030  -0.8618  -0.5076
    -0.2021  -0.1696  -0.0526  -0.0199   0.2276   0.5862   0.5972   0.6370

          k = 0.0000 0.0000 0.3640 ( 24802 PWs)   bands (ev):

   -24.0489 -24.0432  -9.5002  -9.4933  -9.4773  -9.4407  -9.2995  -9.2770
    -5.6217  -4.9332  -4.7369  -4.6570  -1.4289  -1.2202  -0.8148  -0.6764
    -0.5231  -0.4237  -0.0701   0.1964   0.3970   0.4013   0.4741   0.6153

          k = 0.0000 0.0000-0.7279 ( 24864 PWs)   bands (ev):

   -24.0394 -24.0394  -9.7227  -9.7227  -9.3495  -9.3495  -9.3086  -9.3086
    -4.9114  -4.9114  -4.8995  -4.8995  -1.2444  -1.2442  -1.1909  -1.1906
    -0.1370  -0.1368  -0.0876  -0.0876   0.4191   0.4191   0.4699   0.4704

          k = 0.0000 0.2439 0.0000 ( 24826 PWs)   bands (ev):

   -24.0555 -24.0498  -9.5597  -9.4813  -9.3669  -9.3136  -9.2334  -9.1914
    -5.9350  -5.1341  -4.8187  -4.5524  -1.4875  -1.0504  -0.9771  -0.2365
    -0.2105  -0.2085   0.0249   0.1596   0.2681   0.2803   0.5004   0.5702

          k = 0.0000 0.2439 0.3640 ( 24832 PWs)   bands (ev):

   -24.0481 -24.0440  -9.5404  -9.5049  -9.4270  -9.4147  -9.3085  -9.2981
    -5.5191  -5.0065  -4.7774  -4.6918  -1.2527  -1.2424  -1.0456  -0.4605
    -0.4325  -0.2178  -0.2154   0.2365   0.3380   0.3415   0.4579   0.5047

          k = 0.0000 0.2439-0.7279 ( 24838 PWs)   bands (ev):

   -24.0394 -24.0394  -9.7347  -9.7347  -9.3328  -9.3327  -9.3081  -9.3081
    -5.2092  -5.2092  -4.5912  -4.5912  -1.3807  -1.3806  -1.0062  -1.0059
    -0.0661  -0.0661  -0.0471  -0.0470   0.2909   0.2913   0.4361   0.4362

          k = 0.0000-0.4878 0.0000 ( 24826 PWs)   bands (ev):

   -24.0527 -24.0527  -9.4828  -9.4828  -9.3907  -9.3907  -9.2122  -9.2122
    -5.4599  -5.4599  -4.8083  -4.8083  -1.1905  -1.1905  -0.5328  -0.5328
    -0.2845  -0.2845   0.1729   0.1729   0.2845   0.2845   0.4239   0.4239

          k = 0.0000-0.4878 0.3640 ( 24858 PWs)   bands (ev):

   -24.0460 -24.0460  -9.5401  -9.5401  -9.3759  -9.3759  -9.3335  -9.3335
    -5.2629  -5.2629  -4.7565  -4.7565  -1.2282  -1.2282  -0.7889  -0.7889
    -0.2052  -0.2052   0.1186   0.1186   0.2116   0.2116   0.4400   0.4400

          k = 0.0000-0.4878-0.7279 ( 24824 PWs)   bands (ev):

   -24.0394 -24.0394  -9.7459  -9.7459  -9.3186  -9.3186  -9.3058  -9.3058
    -5.3330  -5.3330  -4.4566  -4.4566  -1.4733  -1.4733  -0.7805  -0.7805
    -0.1209  -0.1209   0.0368   0.0368   0.0813   0.0813   0.4852   0.4852

          k = 0.2479 0.0000 0.0000 ( 24753 PWs)   bands (ev):

   -24.0555 -24.0498  -9.5512  -9.4901  -9.3590  -9.3274  -9.2334  -9.1915
    -5.9453  -5.2426  -4.6004  -4.5804  -1.6283  -0.7914  -0.7687  -0.6394
    -0.1144  -0.0587  -0.0369  -0.0032   0.1673   0.1936   0.5402   0.5776

          k = 0.2479 0.0000 0.3640 ( 24822 PWs)   bands (ev):

   -24.0481 -24.0440  -9.5326  -9.5136  -9.4534  -9.3928  -9.3227  -9.2869
    -5.4834  -4.9244  -4.7806  -4.7658  -1.4029  -1.1800  -1.0488  -0.5017
    -0.4813  -0.2394  -0.0399   0.1156   0.2525   0.3880   0.5398   0.5703

          k = 0.2479 0.0000-0.7279 ( 24816 PWs)   bands (ev):

   -24.0394 -24.0394  -9.7386  -9.7386  -9.3375  -9.3374  -9.3050  -9.3050
    -5.0414  -5.0414  -4.7431  -4.7431  -1.6722  -1.6721  -0.7775  -0.7774
    -0.1407  -0.1405   0.1276   0.1277   0.2485   0.2486   0.4884   0.4888

          k = 0.2479 0.2439 0.0000 ( 24786 PWs)   bands (ev):

   -24.0547 -24.0506  -9.5773  -9.4661  -9.4065  -9.2868  -9.2270  -9.1974
    -5.8116  -5.2217  -4.8140  -4.6001  -1.3676  -1.0258  -0.8009  -0.3462
    -0.2666  -0.2157   0.0409   0.1765   0.1844   0.2853   0.3849   0.5045

          k = 0.2479 0.2439 0.3640 ( 24819 PWs)   bands (ev):

   -24.0475 -24.0446  -9.5340  -9.4991  -9.4857  -9.3751  -9.3316  -9.2809
    -5.3983  -4.9643  -4.8594  -4.7595  -1.3721  -1.1570  -1.0619  -0.5139
    -0.3442  -0.1815  -0.0696   0.1534   0.2190   0.3408   0.4785   0.5570

          k = 0.2479 0.2439-0.7279 ( 24832 PWs)   bands (ev):

   -24.0394 -24.0394  -9.7452  -9.7242  -9.3556  -9.3210  -9.3111  -9.3061
    -5.2307  -5.0496  -4.7291  -4.5423  -1.6677  -1.5647  -0.8810  -0.7449
    -0.1893  -0.1769   0.1214   0.1934   0.2525   0.3119   0.4566   0.4571

          k = 0.2479-0.4878 0.0000 ( 24842 PWs)   bands (ev):

   -24.0527 -24.0527  -9.5522  -9.5522  -9.3206  -9.3206  -9.2120  -9.2120
    -5.4727  -5.4727  -4.7870  -4.7870  -1.1070  -1.1070  -0.5527  -0.5527
    -0.3215  -0.3215   0.1153   0.1153   0.3224   0.3224   0.3765   0.3765

          k = 0.2479-0.4878 0.3640 ( 24820 PWs)   bands (ev):

   -24.0460 -24.0460  -9.5283  -9.5283  -9.4321  -9.4321  -9.2949  -9.2949
    -5.1860  -5.1860  -4.8180  -4.8180  -1.2953  -1.2953  -0.7546  -0.7546
    -0.2096  -0.2096   0.1102   0.1102   0.2618   0.2618   0.4495   0.4495

          k = 0.2479-0.4878-0.7279 ( 24824 PWs)   bands (ev):

   -24.0394 -24.0394  -9.7315  -9.7315  -9.3393  -9.3393  -9.3114  -9.3114
    -5.2329  -5.2329  -4.5340  -4.5340  -1.5582  -1.5582  -0.8790  -0.8790
    -0.0853  -0.0853   0.0470   0.0470   0.3060   0.3060   0.4624   0.4624

          k =-0.4958 0.0000 0.0000 ( 24784 PWs)   bands (ev):

   -24.0527 -24.0527  -9.4644  -9.4644  -9.4151  -9.4151  -9.2123  -9.2123
    -5.5348  -5.5348  -4.6665  -4.6665  -1.2145  -1.2145  -0.4200  -0.4200
    -0.0749  -0.0749  -0.0600  -0.0600   0.0245   0.0245   0.4252   0.4252

          k =-0.4958 0.0000 0.3640 ( 24804 PWs)   bands (ev):

   -24.0460 -24.0460  -9.5424  -9.5424  -9.3940  -9.3940  -9.3216  -9.3216
    -5.1548  -5.1548  -4.8252  -4.8252  -1.3308  -1.3308  -0.7883  -0.7883
    -0.2008  -0.2008  -0.0295  -0.0295   0.3329   0.3329   0.5268   0.5268

          k =-0.4958 0.0000-0.7279 ( 24872 PWs)   bands (ev):

   -24.0394 -24.0394  -9.7535  -9.7535  -9.3282  -9.3282  -9.2995  -9.2995
    -5.0940  -5.0940  -4.6622  -4.6622  -1.8716  -1.8716  -0.4998  -0.4998
    -0.1399  -0.1399  -0.0258  -0.0258   0.4291   0.4291   0.4332   0.4332

          k =-0.4958 0.2439 0.0000 ( 24800 PWs)   bands (ev):

   -24.0526 -24.0526  -9.5503  -9.5503  -9.3255  -9.3255  -9.2120  -9.2120
    -5.5116  -5.5116  -4.7147  -4.7147  -1.1280  -1.1280  -0.4502  -0.4502
    -0.2609  -0.2609  -0.0875  -0.0875   0.2439   0.2439   0.4206   0.4206

          k =-0.4958 0.2439 0.3640 ( 24830 PWs)   bands (ev):

   -24.0460 -24.0460  -9.5296  -9.5296  -9.4363  -9.4363  -9.2935  -9.2935
    -5.1173  -5.1173  -4.8669  -4.8669  -1.3382  -1.3382  -0.7849  -0.7849
    -0.1504  -0.1504   0.0037   0.0037   0.3412   0.3412   0.4700   0.4700

          k =-0.4958 0.2439-0.7279 ( 24824 PWs)   bands (ev):

   -24.0394 -24.0394  -9.7356  -9.7356  -9.3422  -9.3422  -9.3097  -9.3097
    -5.0974  -5.0974  -4.6527  -4.6527  -1.7758  -1.7758  -0.7190  -0.7190
    -0.0939  -0.0939   0.0419   0.0419   0.3709   0.3709   0.5196   0.5196

          k =-0.4958-0.4878 0.0000 ( 24832 PWs)   bands (ev):

   -24.0526 -24.0526  -9.5933  -9.5933  -9.2789  -9.2789  -9.2117  -9.2117
    -5.4860  -5.4860  -4.7646  -4.7646  -1.0082  -1.0082  -0.5904  -0.5904
    -0.3546  -0.3546   0.0815   0.0815   0.3066   0.3066   0.3563   0.3563

          k =-0.4958-0.4878 0.3640 ( 24800 PWs)   bands (ev):

   -24.0460 -24.0460  -9.5011  -9.5011  -9.4834  -9.4834  -9.2765  -9.2765
    -5.0611  -5.0611  -4.9270  -4.9270  -1.3307  -1.3307  -0.8296  -0.8296
    -0.0561  -0.0561   0.1495   0.1495   0.2252   0.2252   0.4136   0.4136

          k =-0.4958-0.4878-0.7279 ( 24872 PWs)   bands (ev):

   -24.0393 -24.0393  -9.7156  -9.7156  -9.3621  -9.3621  -9.3162  -9.3162
    -5.1013  -5.1013  -4.6425  -4.6425  -1.6253  -1.6253  -1.0043  -1.0043
     0.0567   0.0567   0.1754   0.1754   0.2511   0.2511   0.5037   0.5037

     highest occupied level (ev):     0.6370

!    total energy              =    -156.47420830 Ry
     estimated scf accuracy    <          6.2E-13 Ry

     The total energy is the sum of the following terms:
     one-electron contribution =     -24.62983391 Ry
     hartree contribution      =      26.42001235 Ry
     xc contribution           =     -49.10082667 Ry
     ewald contribution        =    -109.16356006 Ry

     convergence has been achieved in   3 iterations

     Forces acting on atoms (cartesian axes, Ry/au):

     atom    1 type  2   force =     0.00000000    0.00000000   -0.00002075
     atom    2 type  2   force =     0.00000000    0.00000000    0.00002075
     atom    3 type  1   force =    -0.00000235   -0.00000034    0.00000919
     atom    4 type  1   force =     0.00000235    0.00000034    0.00000919
     atom    5 type  1   force =    -0.00000235    0.00000034   -0.00000919
     atom    6 type  1   force =     0.00000235   -0.00000034   -0.00000919
     atom    7 type  3   force =     0.00000236    0.00000478    0.00000451
     atom    8 type  3   force =    -0.00000236   -0.00000478    0.00000451
     atom    9 type  3   force =     0.00000236   -0.00000478   -0.00000451
     atom   10 type  3   force =    -0.00000236    0.00000478   -0.00000451
     atom   11 type  3   force =    -0.00000602   -0.00000216   -0.00001576
     atom   12 type  3   force =     0.00000602    0.00000216   -0.00001576
     atom   13 type  3   force =    -0.00000602    0.00000216    0.00001576
     atom   14 type  3   force =     0.00000602   -0.00000216    0.00001576
     atom   15 type  3   force =     0.00000401    0.00001175    0.00000853
     atom   16 type  3   force =    -0.00000401   -0.00001175    0.00000853
     atom   17 type  3   force =     0.00000401   -0.00001175   -0.00000853
     atom   18 type  3   force =    -0.00000401    0.00001175   -0.00000853
     atom   19 type  3   force =    -0.00000229    0.00001172    0.00000220
     atom   20 type  3   force =     0.00000229   -0.00001172    0.00000220
     atom   21 type  3   force =    -0.00000229   -0.00001172   -0.00000220
     atom   22 type  3   force =     0.00000229    0.00001172   -0.00000220

     Total force =     0.000064     Total SCF correction =     0.000001


     Computing stress (Cartesian axis) and pressure

          total   stress  (Ry/bohr**3)                   (kbar)     P=       -4.26
  -0.00002894   0.00000000   0.00000000           -4.26        0.00        0.00
   0.00000000  -0.00002897   0.00000000            0.00       -4.26        0.00
   0.00000000   0.00000000  -0.00002898            0.00        0.00       -4.26

     Volume is kept fixed: isostatic pressure set to zero
     Message from routine bfgs:
     history already reset at previous step: exiting
     Energy error            =      5.2E-09 Ry
     Gradient error          =      2.1E-05 Ry/Bohr
     Cell gradient error     =      3.7E-03 kbar
ibrav =      8
 celldm(1) =     12.85301575
 celldm(2) =      1.01639223
 celldm(3) =      0.68104483
Input lattice vectors:
     1.00854207     0.00000000     0.00000000
     0.00000000     1.02507432     0.00000000
     0.00000000     0.00000000     0.68686236
New lattice vectors in INITIAL alat:
     1.00854207     0.00000000     0.00000000
     0.00000000     1.02507432     0.00000000
     0.00000000     0.00000000     0.68686236
New lattice vectors in NEW alat (for information only):
     1.00000000     0.00000000     0.00000000
     0.00000000     1.01639223     0.00000000
     0.00000000     0.00000000     0.68104483
Discrepancy in bohr =     0.000000    0.000000    0.000000

     bfgs failed after  57 scf cycles and  56 bfgs steps, convergence not achieved
     (criteria: energy <  1.0E-05 Ry, force <  1.0E-05 Ry/Bohr, cell <  5.0E-01 kbar)

     End of BFGS Geometry Optimization

     Final enthalpy           =    -156.4742082985 Ry

     File ./pwscf.bfgs deleted, as requested
Begin final coordinates
     new unit-cell volume =   1469.77940 a.u.^3 (   217.79884 Ang^3 )
     density =      2.54667 g/cm^3

CELL_PARAMETERS (alat= 12.74415427)
   1.008542072   0.000000000   0.000000000
   0.000000000   1.025074323   0.000000000
   0.000000000   0.000000000   0.686862365

ATOMIC_POSITIONS (crystal)
Ba               0.5000000000        0.5000000000        0.5000215020
Ba               0.0000000000        0.0000000000        0.9999784980
B                0.6150581224        0.2429114396       -0.0000067241
B                0.3849418776        0.7570885604       -0.0000067241
B                0.1150581224        0.2570885604        0.5000067241
B                0.8849418776        0.7429114396        0.5000067241
H                0.4405178971        0.2905294963       -0.0000233624
H                0.5594821029        0.7094705037       -0.0000233624
H                0.9405178971        0.2094705037        0.5000233624
H                0.0594821029        0.7905294963        0.5000233624
H                0.7205738770        0.3889445518        0.0000206105
H                0.2794261230        0.6110554482        0.0000206105
H                0.2205738770        0.1110554482        0.4999793895
H                0.7794261230        0.8889445518        0.4999793895
H                0.6463238532        0.1474993965        0.7806983551
H                0.3536761468        0.8525006035        0.7806983551
H                0.1463238532        0.3525006035        0.7193016449
H                0.8536761468        0.6474993965        0.7193016449
H                0.3536918270        0.8524861510        0.2193012326
H                0.6463081730        0.1475138490        0.2193012326
H                0.8536918270        0.6475138490        0.2806987674
H                0.1463081730        0.3524861510        0.2806987674
End final coordinates



     Writing config-only to output data dir ./pwscf.save/ :
     XML data file

     Writing all to output data dir ./pwscf.save/ :
     XML data file, charge density, pseudopotentials, collected wavefunctions

     init_run     :      4.28s CPU      4.44s WALL (       1 calls)
     electrons    :   3065.07s CPU   3158.06s WALL (      57 calls)
     update_pot   :      5.34s CPU      5.96s WALL (      56 calls)
     forces       :    102.87s CPU    104.69s WALL (      57 calls)
     stress       :    368.76s CPU    370.25s WALL (      57 calls)

     Called by init_run:
     wfcinit      :      3.36s CPU      3.46s WALL (       1 calls)
     potinit      :      0.25s CPU      0.26s WALL (       1 calls)
     hinit0       :      0.46s CPU      0.48s WALL (       1 calls)

     Called by electrons:
     c_bands      :   2652.16s CPU   2728.47s WALL (     418 calls)
     sum_band     :    354.54s CPU    368.32s WALL (     418 calls)
     v_of_rho     :     24.65s CPU     26.12s WALL (     427 calls)
     newd         :     36.02s CPU     36.99s WALL (     427 calls)
     mix_rho      :      2.57s CPU      2.80s WALL (     418 calls)

     Called by c_bands:
     init_us_2    :     70.95s CPU     71.58s WALL (   25677 calls)
     cegterg      :   2525.62s CPU   2601.30s WALL (   11286 calls)

     Called by *egterg:
     cdiaghg      :     30.60s CPU     30.71s WALL (   43247 calls)
     h_psi        :   1629.94s CPU   1704.32s WALL (   46082 calls)
     s_psi        :    390.38s CPU    390.99s WALL (   46082 calls)
     g_psi        :      7.95s CPU      7.98s WALL (   34769 calls)

     Called by h_psi:
     h_psi:calbec :    404.21s CPU    412.86s WALL (   46082 calls)
     vloc_psi     :    829.48s CPU    894.67s WALL (   46082 calls)
     add_vuspsi   :    391.99s CPU    392.71s WALL (   46082 calls)

     General routines
     calbec       :    627.28s CPU    639.08s WALL (   65063 calls)
     fft          :     16.05s CPU     17.56s WALL (    6966 calls)
     ffts         :      0.85s CPU      0.91s WALL (     845 calls)
     fftw         :    834.88s CPU    900.33s WALL ( 1910224 calls)
     interpolate  :      1.63s CPU      1.80s WALL (     427 calls)
     davcio       :      0.00s CPU      0.05s WALL (      27 calls)

     Parallel routines

     PWSCF        :  59m12.80s CPU      1h 0m WALL


   This run was terminated on:  16: 4:29  12Jul2024            

=------------------------------------------------------------------------------=
   JOB DONE.
=------------------------------------------------------------------------------=
