
     Program MATDYN v.7.3.1 starts on  5Aug2024 at 15: 4:26 

     This program is part of the open-source Quantum ESPRESSO suite
     for quantum simulation of materials; please cite
         "P. Giannozzi et al., J. Phys.:Condens. Matter 21 395502 (2009);
         "P. Giannozzi et al., J. Phys.:Condens. Matter 29 465901 (2017);
         "P. Giannozzi et al., J. Chem. Phys. 152 154105 (2020);
          URL http://www.quantum-espresso.org", 
     in publications or presentations arising from this work. More details at
     http://www.quantum-espresso.org/quote

     Parallel version (MPI), running on    24 processors

     MPI processes distributed on     1 nodes
     R & G space division:  proc/nbgrp/npool/nimage =      24
     81075 MiB available memory on the printing compute node when the environment starts

 Norm of the difference between old and new effective charges:    0.00000009534625947228

 Norm of the difference between old and new force-constants:   0.00126210476462551135


     MATDYN       :     17h22m CPU     17h23m WALL


   This run was terminated on:   8:28: 9   6Aug2024            

=------------------------------------------------------------------------------=
   JOB DONE.
=------------------------------------------------------------------------------=
