
     Program PWSCF v.7.3.1 starts on 12Jul2024 at 12:17:15 

     This program is part of the open-source Quantum ESPRESSO suite
     for quantum simulation of materials; please cite
         "P. Giannozzi et al., J. Phys.:Condens. Matter 21 395502 (2009);
         "P. Giannozzi et al., J. Phys.:Condens. Matter 29 465901 (2017);
         "P. Giannozzi et al., J. Chem. Phys. 152 154105 (2020);
          URL http://www.quantum-espresso.org", 
     in publications or presentations arising from this work. More details at
     http://www.quantum-espresso.org/quote

     Parallel version (MPI), running on    24 processors

     MPI processes distributed on     1 nodes
     94488 MiB available memory on the printing compute node when the environment starts

     Waiting for input...
     Reading input from standard input

     Current dimensions of program PWSCF are:
     Max number of different atomic species (ntypx) = 10
     Max number of k-points (npk) =  40000
     Max angular momentum in pseudopotentials (lmaxx) =  4

     R & G space division:  proc/nbgrp/npool/nimage =      24
     Subspace diagonalization in iterative solution of the eigenvalue problem:
     a serial algorithm will be used


     Parallelization info
     --------------------
     sticks:   dense  smooth     PW     G-vecs:    dense   smooth      PW
     Min         447     223     60                23505     8309    1166
     Max         448     225     61                23508     8310    1169
     Sum       10737    5373   1457               564159   199431   28029

     Using Slab Decomposition


     Title: 
     pre-ph                                                                     


     bravais-lattice index     =            8
     lattice parameter (alat)  =      12.8938  a.u.
     unit-cell volume          =    1476.9142 (a.u.)^3
     number of atoms/cell      =           22
     number of atomic types    =            3
     number of electrons       =        48.00
     number of Kohn-Sham states=           24
     kinetic-energy cutoff     =     100.0000  Ry
     charge density cutoff     =     800.0000  Ry
     scf convergence threshold =      1.0E-10
     mixing beta               =       0.7000
     number of iterations used =            8  plain     mixing
     Exchange-correlation= PBESOL
                           (   1   4  10   8   0   0   0)

     celldm(1)=  12.893777  celldm(2)=   1.014803  celldm(3)=   0.678942
     celldm(4)=   0.000000  celldm(5)=   0.000000  celldm(6)=   0.000000

     crystal axes: (cart. coord. in units of alat)
               a(1) = (   1.000000   0.000000   0.000000 )  
               a(2) = (   0.000000   1.014803   0.000000 )  
               a(3) = (   0.000000   0.000000   0.678942 )  

     reciprocal axes: (cart. coord. in units 2 pi/alat)
               b(1) = (  1.000000  0.000000  0.000000 )  
               b(2) = (  0.000000  0.985413  0.000000 )  
               b(3) = (  0.000000  0.000000  1.472879 )  


     PseudoPot. # 1 for B  read from file:
     /home/mehlhorn/pseudos/b_pbesol_v1.4.uspp.F.UPF
     MD5 check sum: 369b69bef2c3aeed4453bd8b804fd6a8
     Pseudo is Ultrasoft + core correction, Zval =  3.0
     Generated by new atomic code, or converted to UPF format
     Using radial grid of  781 points,  4 beta functions with: 
                l(1) =   0
                l(2) =   0
                l(3) =   1
                l(4) =   1
     Q(r) pseudized with  8 coefficients,  rinner =    1.100   1.100   1.100


     PseudoPot. # 2 for Ba read from file:
     /home/mehlhorn/pseudos/Ba.nc.z_10.oncvpsp4.dojo.v4-sp.upf
     MD5 check sum: c10ed334bb677c0554edec7181ce9143
     Pseudo is Norm-conserving + core correction, Zval = 10.0
     Generated using ONCVPSP code by D. R. Hamann
     Using radial grid of 1938 points,  8 beta functions with: 
                l(1) =   0
                l(2) =   0
                l(3) =   1
                l(4) =   1
                l(5) =   2
                l(6) =   2
                l(7) =   3
                l(8) =   3

     PseudoPot. # 3 for H  read from file:
     /home/mehlhorn/pseudos/H_ONCV_PBEsol-1.0.upf
     MD5 check sum: 398ef8f67c0a7342c05c87c5e19ea467
     Pseudo is Norm-conserving, Zval =  1.0
     Generated using ONCVPSP code by D. R. Hamann
     Using radial grid of 1180 points,  2 beta functions with: 
                l(1) =   0
                l(2) =   0

     atomic species   valence    mass     pseudopotential
     B                 3.00    10.81100     B ( 1.00)
     Ba               10.00   137.32700     Ba( 1.00)
     H                 1.00     1.00794     H ( 1.00)

      4 Sym. Ops. (no inversion) found ( 2 have fractional translation)



   Cartesian axes

     site n.     atom                  positions (alat units)
         1        Ba     tau(   1) = (   0.5000000   0.5074017   0.3394765  )
         2        Ba     tau(   2) = (   0.0000000   0.0000000   0.6789372  )
         3        B      tau(   3) = (   0.6159485   0.2472610   0.0000003  )
         4        B      tau(   4) = (   0.3840515   0.7675423   0.0000003  )
         5        B      tau(   5) = (   0.1159485   0.2601406   0.3394709  )
         6        B      tau(   6) = (   0.8840515   0.7546627   0.3394709  )
         7        H      tau(   7) = (   0.4416547   0.2944720  -0.0000162  )
         8        H      tau(   8) = (   0.5583453   0.7203313  -0.0000162  )
         9        H      tau(   9) = (   0.9416547   0.2129296   0.3394874  )
        10        H      tau(  10) = (   0.0583453   0.8018737   0.3394874  )
        11        H      tau(  11) = (   0.7202307   0.3958459   0.0000068  )
        12        H      tau(  12) = (   0.2797693   0.6189574   0.0000068  )
        13        H      tau(  13) = (   0.2202307   0.1115558   0.3394645  )
        14        H      tau(  14) = (   0.7797693   0.9032476   0.3394645  )
        15        H      tau(  15) = (   0.6476834   0.1507978   0.5300368  )
        16        H      tau(  16) = (   0.3523166   0.8640056   0.5300368  )
        17        H      tau(  17) = (   0.1476834   0.3566039   0.4883769  )
        18        H      tau(  18) = (   0.8523166   0.6581994   0.4883769  )
        19        H      tau(  19) = (   0.3523322   0.8640023   0.1489115  )
        20        H      tau(  20) = (   0.6476678   0.1508010   0.1489115  )
        21        H      tau(  21) = (   0.8523322   0.6582027   0.1905597  )
        22        H      tau(  22) = (   0.1476678   0.3566006   0.1905597  )

     number of k points=    27
                       cart. coord. in units 2pi/alat
        k(    1) = (   0.0000000   0.0000000   0.0000000), wk =   0.0160000
        k(    2) = (   0.0000000   0.0000000   0.2945758), wk =   0.0320000
        k(    3) = (   0.0000000   0.0000000   0.5891515), wk =   0.0320000
        k(    4) = (   0.0000000   0.1970825   0.0000000), wk =   0.0320000
        k(    5) = (   0.0000000   0.1970825   0.2945758), wk =   0.0640000
        k(    6) = (   0.0000000   0.1970825   0.5891515), wk =   0.0640000
        k(    7) = (   0.0000000   0.3941650   0.0000000), wk =   0.0320000
        k(    8) = (   0.0000000   0.3941650   0.2945758), wk =   0.0640000
        k(    9) = (   0.0000000   0.3941650   0.5891515), wk =   0.0640000
        k(   10) = (   0.2000000   0.0000000   0.0000000), wk =   0.0320000
        k(   11) = (   0.2000000   0.0000000   0.2945758), wk =   0.0640000
        k(   12) = (   0.2000000   0.0000000   0.5891515), wk =   0.0640000
        k(   13) = (   0.2000000   0.1970825   0.0000000), wk =   0.0640000
        k(   14) = (   0.2000000   0.1970825   0.2945758), wk =   0.1280000
        k(   15) = (   0.2000000   0.1970825   0.5891515), wk =   0.1280000
        k(   16) = (   0.2000000   0.3941650   0.0000000), wk =   0.0640000
        k(   17) = (   0.2000000   0.3941650   0.2945758), wk =   0.1280000
        k(   18) = (   0.2000000   0.3941650   0.5891515), wk =   0.1280000
        k(   19) = (   0.4000000   0.0000000   0.0000000), wk =   0.0320000
        k(   20) = (   0.4000000   0.0000000   0.2945758), wk =   0.0640000
        k(   21) = (   0.4000000   0.0000000   0.5891515), wk =   0.0640000
        k(   22) = (   0.4000000   0.1970825   0.0000000), wk =   0.0640000
        k(   23) = (   0.4000000   0.1970825   0.2945758), wk =   0.1280000
        k(   24) = (   0.4000000   0.1970825   0.5891515), wk =   0.1280000
        k(   25) = (   0.4000000   0.3941650   0.0000000), wk =   0.0640000
        k(   26) = (   0.4000000   0.3941650   0.2945758), wk =   0.1280000
        k(   27) = (   0.4000000   0.3941650   0.5891515), wk =   0.1280000

     Dense  grid:   564159 G-vectors     FFT dimensions: ( 120, 120,  80)

     Smooth grid:   199431 G-vectors     FFT dimensions: (  90,  90,  60)

     Estimated max dynamical RAM per process >      68.10 MB

     Estimated total dynamical RAM >       1.60 GB

     Initial potential from superposition of free atoms

     starting charge      47.9682, renormalised to      48.0000
     Starting wfcs are   42 randomized atomic wfcs

     total cpu time spent up to now is       11.6 secs

     Self-consistent Calculation

     iteration #  1     ecut=   100.00 Ry     beta= 0.70
     Davidson diagonalization with overlap
     ethr =  1.00E-02,  avg # of iterations =  2.0

     total cpu time spent up to now is       27.3 secs

     total energy              =    -155.92016364 Ry
     estimated scf accuracy    <       2.11568956 Ry

     iteration #  2     ecut=   100.00 Ry     beta= 0.70
     Davidson diagonalization with overlap
     ethr =  4.41E-03,  avg # of iterations =  2.0

     total cpu time spent up to now is       42.4 secs

     total energy              =    -156.40733705 Ry
     estimated scf accuracy    <       0.37657985 Ry

     iteration #  3     ecut=   100.00 Ry     beta= 0.70
     Davidson diagonalization with overlap
     ethr =  7.85E-04,  avg # of iterations =  2.0

     total cpu time spent up to now is       57.5 secs

     total energy              =    -156.47028996 Ry
     estimated scf accuracy    <       0.00491189 Ry

     iteration #  4     ecut=   100.00 Ry     beta= 0.70
     Davidson diagonalization with overlap
     ethr =  1.02E-05,  avg # of iterations =  5.1

     total cpu time spent up to now is       79.3 secs

     total energy              =    -156.47332565 Ry
     estimated scf accuracy    <       0.00175472 Ry

     iteration #  5     ecut=   100.00 Ry     beta= 0.70
     Davidson diagonalization with overlap
     ethr =  3.66E-06,  avg # of iterations =  3.5

     total cpu time spent up to now is       95.0 secs

     total energy              =    -156.47393314 Ry
     estimated scf accuracy    <       0.00017911 Ry

     iteration #  6     ecut=   100.00 Ry     beta= 0.70
     Davidson diagonalization with overlap
     ethr =  3.73E-07,  avg # of iterations =  4.2

     total cpu time spent up to now is      112.5 secs

     total energy              =    -156.47400262 Ry
     estimated scf accuracy    <       0.00000104 Ry

     iteration #  7     ecut=   100.00 Ry     beta= 0.70
     Davidson diagonalization with overlap
     ethr =  2.17E-09,  avg # of iterations = 10.8

     total cpu time spent up to now is      153.1 secs

     total energy              =    -156.47401331 Ry
     estimated scf accuracy    <       0.00000086 Ry

     iteration #  8     ecut=   100.00 Ry     beta= 0.70
     Davidson diagonalization with overlap
     ethr =  1.80E-09,  avg # of iterations =  2.0

     total cpu time spent up to now is      168.2 secs

     total energy              =    -156.47401344 Ry
     estimated scf accuracy    <       0.00000003 Ry

     iteration #  9     ecut=   100.00 Ry     beta= 0.70
     Davidson diagonalization with overlap
     ethr =  5.64E-11,  avg # of iterations =  5.7

     total cpu time spent up to now is      188.1 secs

     total energy              =    -156.47401346 Ry
     estimated scf accuracy    <          3.5E-09 Ry

     iteration # 10     ecut=   100.00 Ry     beta= 0.70
     Davidson diagonalization with overlap
     ethr =  7.34E-12,  avg # of iterations =  3.6

     total cpu time spent up to now is      205.7 secs

     End of self-consistent calculation

          k = 0.0000 0.0000 0.0000 ( 24923 PWs)   bands (ev):

   -24.1009 -24.0930  -9.6265  -9.5515  -9.3611  -9.3223  -9.2841  -9.2260
    -6.1492  -5.2356  -4.6030  -4.4824  -1.8452  -0.9256  -0.8913  -0.5358
    -0.2484  -0.2062  -0.0809  -0.0630   0.1979   0.5479   0.5570   0.5966

          k = 0.0000 0.0000 0.2946 ( 24928 PWs)   bands (ev):

   -24.0955 -24.0892  -9.5636  -9.5046  -9.4656  -9.4347  -9.3471  -9.3196
    -5.8046  -5.0393  -4.7236  -4.6318  -1.5649  -1.1818  -0.7808  -0.7360
    -0.4650  -0.3693  -0.0870   0.0834   0.3535   0.4120   0.4319   0.5857

          k = 0.0000 0.0000 0.5892 ( 24970 PWs)   bands (ev):

   -24.0862 -24.0837  -9.7235  -9.7176  -9.4340  -9.4100  -9.3437  -9.3333
    -5.1708  -4.9167  -4.8859  -4.8493  -1.3337  -1.2962  -1.1523  -1.0013
    -0.3924  -0.3471  -0.0255   0.0696   0.3171   0.3353   0.4663   0.4857

          k = 0.0000 0.1971 0.0000 ( 24944 PWs)   bands (ev):

   -24.1001 -24.0937  -9.6087  -9.5326  -9.3928  -9.3446  -9.2785  -9.2314
    -6.0271  -5.1874  -4.7772  -4.5562  -1.6226  -1.0356  -0.9887  -0.3214
    -0.2508  -0.2125  -0.0879   0.0827   0.2324   0.3530   0.4926   0.5437

          k = 0.0000 0.1971 0.2946 ( 24916 PWs)   bands (ev):

   -24.0949 -24.0898  -9.5622  -9.4906  -9.4583  -9.4493  -9.3473  -9.3349
    -5.7158  -5.0131  -4.8407  -4.6752  -1.4156  -1.2097  -0.9948  -0.4704
    -0.3729  -0.3123  -0.2585   0.1707   0.3309   0.3912   0.4141   0.4790

          k = 0.0000 0.1971 0.5892 ( 24966 PWs)   bands (ev):

   -24.0859 -24.0840  -9.7326  -9.7270  -9.4150  -9.3994  -9.3441  -9.3390
    -5.2647  -5.1259  -4.7635  -4.6632  -1.3768  -1.3073  -1.1599  -0.9177
    -0.3190  -0.2051  -0.0532   0.0720   0.2477   0.3019   0.3933   0.4603

          k = 0.0000 0.3942 0.0000 ( 24940 PWs)   bands (ev):

   -24.0981 -24.0957  -9.5573  -9.4998  -9.4484  -9.4006  -9.2638  -9.2458
    -5.7014  -5.2880  -4.9280  -4.7393  -1.2739  -1.1809  -0.8475  -0.3069
    -0.2984  -0.2366   0.0102   0.1602   0.2057   0.2579   0.3613   0.4577

          k = 0.0000 0.3942 0.2946 ( 24926 PWs)   bands (ev):

   -24.0933 -24.0914  -9.5466  -9.5094  -9.4487  -9.4245  -9.3656  -9.3596
    -5.4757  -5.1593  -4.8967  -4.7813  -1.2363  -1.2159  -0.9646  -0.5832
    -0.2715  -0.2061  -0.0938   0.1545   0.1744   0.2268   0.4386   0.4390

          k = 0.0000 0.3942 0.5892 ( 24984 PWs)   bands (ev):

   -24.0853 -24.0846  -9.7448  -9.7423  -9.3782  -9.3769  -9.3547  -9.3522
    -5.3428  -5.2965  -4.6086  -4.5612  -1.4389  -1.4229  -0.9417  -0.7973
    -0.2143  -0.1598  -0.0267   0.0360   0.1532   0.2228   0.3218   0.4269

          k = 0.2000 0.0000 0.0000 ( 24941 PWs)   bands (ev):

   -24.1001 -24.0937  -9.6031  -9.5385  -9.3872  -9.3538  -9.2785  -9.2315
    -6.0332  -5.2557  -4.6285  -4.5825  -1.7175  -0.8342  -0.7546  -0.7443
    -0.1704  -0.0860  -0.0857  -0.0726   0.1573   0.2581   0.5458   0.5579

          k = 0.2000 0.0000 0.2946 ( 24962 PWs)   bands (ev):

   -24.0949 -24.0898  -9.5462  -9.5225  -9.4546  -9.4379  -9.3628  -9.3236
    -5.7060  -5.0399  -4.7456  -4.7214  -1.4763  -1.1917  -0.8858  -0.6257
    -0.4540  -0.2985  -0.0895   0.1248   0.1574   0.3853   0.5048   0.5435

          k = 0.2000 0.0000 0.5892 ( 24953 PWs)   bands (ev):

   -24.0859 -24.0840  -9.7349  -9.7296  -9.4215  -9.3941  -9.3498  -9.3339
    -5.1576  -4.9830  -4.8861  -4.7703  -1.6221  -1.4468  -1.0266  -0.7484
    -0.3526  -0.1526  -0.0098   0.0668   0.2446   0.3537   0.3746   0.5013

          k = 0.2000 0.1971 0.0000 ( 24896 PWs)   bands (ev):

   -24.0995 -24.0943  -9.6135  -9.5025  -9.4442  -9.3318  -9.2738  -9.2358
    -5.9355  -5.2265  -4.8001  -4.5981  -1.5289  -1.0203  -0.8625  -0.4449
    -0.2655  -0.2082   0.0549   0.0866   0.1630   0.2268   0.4128   0.5186

          k = 0.2000 0.1971 0.2946 ( 24943 PWs)   bands (ev):

   -24.0944 -24.0903  -9.5559  -9.5076  -9.4757  -9.4231  -9.3651  -9.3250
    -5.6303  -5.0070  -4.8882  -4.7210  -1.3704  -1.1973  -1.0064  -0.5091
    -0.3999  -0.2610  -0.1183   0.1179   0.1933   0.3448   0.4452   0.5197

          k = 0.2000 0.1971 0.5892 ( 24953 PWs)   bands (ev):

   -24.0857 -24.0841  -9.7430  -9.7230  -9.4304  -9.3726  -9.3571  -9.3371
    -5.2481  -5.0495  -4.8438  -4.6498  -1.5981  -1.4490  -0.9909  -0.7840
    -0.3045  -0.1282  -0.0257   0.1122   0.1919   0.3172   0.3732   0.4881

          k = 0.2000 0.3942 0.0000 ( 24919 PWs)   bands (ev):

   -24.0979 -24.0959  -9.5987  -9.5433  -9.4128  -9.3523  -9.2619  -9.2473
    -5.6715  -5.3405  -4.8958  -4.7407  -1.2126  -1.1392  -0.8058  -0.3377
    -0.3145  -0.2972  -0.0783   0.2148   0.2289   0.2811   0.3322   0.3837

          k = 0.2000 0.3942 0.2946 ( 24946 PWs)   bands (ev):

   -24.0931 -24.0915  -9.5546  -9.5283  -9.4604  -9.4235  -9.3581  -9.3351
    -5.4249  -5.1488  -4.9186  -4.8061  -1.2692  -1.2012  -0.9397  -0.6283
    -0.2534  -0.1779  -0.0883   0.1305   0.1679   0.2612   0.4135   0.4461

          k = 0.2000 0.3942 0.5892 ( 24945 PWs)   bands (ev):

   -24.0852 -24.0846  -9.7412  -9.7292  -9.4167  -9.3840  -9.3503  -9.3405
    -5.2934  -5.2199  -4.6729  -4.5954  -1.5452  -1.4783  -0.9054  -0.8127
    -0.2717  -0.1473  -0.0071   0.1222   0.2201   0.2873   0.3358   0.4374

          k = 0.4000 0.0000 0.0000 ( 24871 PWs)   bands (ev):

   -24.0981 -24.0957  -9.5414  -9.5018  -9.4499  -9.4232  -9.2638  -9.2458
    -5.7387  -5.4137  -4.7029  -4.6854  -1.4156  -1.0693  -0.6231  -0.3400
    -0.2393  -0.0987  -0.0897  -0.0674   0.0519   0.0534   0.3580   0.4497

          k = 0.4000 0.0000 0.2946 ( 24923 PWs)   bands (ev):

   -24.0933 -24.0913  -9.5282  -9.5156  -9.4769  -9.4346  -9.3705  -9.3416
    -5.4506  -5.1572  -4.8285  -4.7970  -1.3199  -1.1334  -1.0063  -0.6330
    -0.3453  -0.1523  -0.1488  -0.0598   0.2082   0.3215   0.4857   0.4977

          k = 0.4000 0.0000 0.5892 ( 24953 PWs)   bands (ev):

   -24.0853 -24.0845  -9.7509  -9.7487  -9.3944  -9.3692  -9.3619  -9.3414
    -5.1281  -5.0740  -4.8064  -4.7460  -1.7900  -1.7187  -0.7439  -0.5688
    -0.2560  -0.1279  -0.0427   0.0731   0.2503   0.3396   0.4071   0.4628

          k = 0.4000 0.1971 0.0000 ( 24913 PWs)   bands (ev):

   -24.0979 -24.0959  -9.5958  -9.5403  -9.4193  -9.3579  -9.2619  -9.2474
    -5.6974  -5.4125  -4.7783  -4.6891  -1.3071  -1.0862  -0.6013  -0.3987
    -0.2650  -0.2347  -0.1858   0.0285   0.1289   0.1909   0.3321   0.4466

          k = 0.4000 0.1971 0.2946 ( 24940 PWs)   bands (ev):

   -24.0931 -24.0915  -9.5492  -9.5287  -9.4720  -9.4316  -9.3557  -9.3309
    -5.4097  -5.1474  -4.8853  -4.8066  -1.3006  -1.1607  -0.9913  -0.6605
    -0.3098  -0.1317  -0.0891   0.0114   0.1847   0.2978   0.4340   0.4835

          k = 0.4000 0.1971 0.5892 ( 24926 PWs)   bands (ev):

   -24.0852 -24.0846  -9.7452  -9.7334  -9.4192  -9.3867  -9.3491  -9.3390
    -5.1661  -5.0369  -4.8396  -4.7051  -1.7417  -1.6808  -0.7754  -0.6855
    -0.2480  -0.1267  -0.0367   0.0912   0.2719   0.3287   0.4208   0.4968

          k = 0.4000 0.3942 0.0000 ( 24926 PWs)   bands (ev):

   -24.0972 -24.0965  -9.6280  -9.6075  -9.3491  -9.3240  -9.2571  -9.2515
    -5.5858  -5.4614  -4.8237  -4.7632  -1.1040  -1.0705  -0.6829  -0.4788
    -0.3671  -0.3549  -0.0879   0.1122   0.2776   0.2868   0.3013   0.3365

          k = 0.4000 0.3942 0.2946 ( 24928 PWs)   bands (ev):

   -24.0926 -24.0920  -9.5673  -9.5584  -9.4548  -9.4381  -9.3302  -9.3202
    -5.3020  -5.1815  -4.9239  -4.8664  -1.2607  -1.2002  -0.9381  -0.7947
    -0.1345  -0.0608  -0.0090   0.1038   0.1477   0.2799   0.3218   0.3979

          k = 0.4000 0.3942 0.5892 ( 24946 PWs)   bands (ev):

   -24.0850 -24.0848  -9.7251  -9.7166  -9.4400  -9.4228  -9.3400  -9.3381
    -5.1602  -5.0949  -4.7746  -4.7067  -1.6298  -1.5991  -0.9241  -0.9093
    -0.1506  -0.0426   0.0759   0.1029   0.2492   0.2672   0.4405   0.4764

     highest occupied level (ev):     0.5966

!    total energy              =    -156.47401347 Ry
     estimated scf accuracy    <          5.4E-11 Ry

     The total energy is the sum of the following terms:
     one-electron contribution =     -25.18542289 Ry
     hartree contribution      =      26.62815728 Ry
     xc contribution           =     -49.09476347 Ry
     ewald contribution        =    -108.82198438 Ry

     convergence has been achieved in  10 iterations

     Writing all to output data dir ./pwscf.save/ :
     XML data file, charge density, pseudopotentials, collected wavefunctions

     init_run     :      9.74s CPU     11.17s WALL (       1 calls)
     electrons    :    192.54s CPU    194.21s WALL (       1 calls)

     Called by init_run:
     wfcinit      :      7.19s CPU      7.26s WALL (       1 calls)
     potinit      :      0.58s CPU      1.04s WALL (       1 calls)
     hinit0       :      1.07s CPU      1.91s WALL (       1 calls)

     Called by electrons:
     c_bands      :    170.98s CPU    172.19s WALL (      10 calls)
     sum_band     :     18.15s CPU     18.43s WALL (      10 calls)
     v_of_rho     :      1.34s CPU      1.45s WALL (      11 calls)
     newd         :      2.01s CPU      2.04s WALL (      11 calls)
     mix_rho      :      0.18s CPU      0.20s WALL (      10 calls)

     Called by c_bands:
     init_us_2    :      3.70s CPU      3.75s WALL (     567 calls)
     cegterg      :    153.19s CPU    154.34s WALL (     270 calls)

     Called by *egterg:
     cdiaghg      :      2.68s CPU      2.70s WALL (    1373 calls)
     h_psi        :    108.36s CPU    109.32s WALL (    1400 calls)
     s_psi        :     22.07s CPU     22.16s WALL (    1400 calls)
     g_psi        :      0.44s CPU      0.44s WALL (    1103 calls)

     Called by h_psi:
     h_psi:calbec :     19.51s CPU     19.63s WALL (    1400 calls)
     vloc_psi     :     66.25s CPU     67.02s WALL (    1400 calls)
     add_vuspsi   :     22.23s CPU     22.30s WALL (    1400 calls)

     General routines
     calbec       :     24.57s CPU     24.72s WALL (    1670 calls)
     fft          :      1.69s CPU      2.61s WALL (     141 calls)
     ffts         :      0.47s CPU      0.91s WALL (      21 calls)
     fftw         :     65.55s CPU     66.30s WALL (   55094 calls)
     interpolate  :      0.52s CPU      0.97s WALL (      11 calls)

     Parallel routines

     PWSCF        :   3m23.14s CPU   3m27.00s WALL


   This run was terminated on:  12:20:42  12Jul2024            

=------------------------------------------------------------------------------=
   JOB DONE.
=------------------------------------------------------------------------------=
