
     Program PHONON v.7.3.1 starts on 12Jul2024 at 12:20:43 

     This program is part of the open-source Quantum ESPRESSO suite
     for quantum simulation of materials; please cite
         "P. Giannozzi et al., J. Phys.:Condens. Matter 21 395502 (2009);
         "P. Giannozzi et al., J. Phys.:Condens. Matter 29 465901 (2017);
         "P. Giannozzi et al., J. Chem. Phys. 152 154105 (2020);
          URL http://www.quantum-espresso.org", 
     in publications or presentations arising from this work. More details at
     http://www.quantum-espresso.org/quote

     Parallel version (MPI), running on    24 processors

     MPI processes distributed on     1 nodes
     94224 MiB available memory on the printing compute node when the environment starts

     Waiting for input...
     Reading input from standard input

     Reading xml data from directory:

     ./pwscf.save/

     R & G space division:  proc/nbgrp/npool/nimage =      24
     Subspace diagonalization in iterative solution of the eigenvalue problem:
     a serial algorithm will be used


     IMPORTANT: XC functional enforced from input :
     Exchange-correlation= PBESOL
                           (   1   4  10   8   0   0   0)
     Any further DFT definition will be discarded
     Please, verify this is what you really want


     Parallelization info
     --------------------
     sticks:   dense  smooth     PW     G-vecs:    dense   smooth      PW
     Min         447     223     60                23505     8309    1166
     Max         448     225     61                23508     8310    1169
     Sum       10737    5373   1457               564159   199431   28029

     Using Slab Decomposition

     Reading collected, re-writing distributed wavefunctions in ./


     Dynamical matrices for ( 3, 3, 3)  uniform grid of q-points
     (   8 q-points):
       N         xq(1)         xq(2)         xq(3) 
       1   0.000000000   0.000000000   0.000000000
       2   0.000000000   0.000000000   0.490959614
       3   0.000000000   0.328470871   0.000000000
       4   0.000000000   0.328470871   0.490959614
       5   0.333333333   0.000000000   0.000000000
       6   0.333333333   0.000000000   0.490959614
       7   0.333333333   0.328470871   0.000000000
       8   0.333333333   0.328470871   0.490959614

     Number and degeneracy of irreps per q-point
       N         xq(1)         xq(2)         xq(3)   N irreps
       1   0.000000000   0.000000000   0.000000000      66
     No degeneracy
       2   0.000000000   0.000000000   0.490959614      66
     No degeneracy
       3   0.000000000   0.328470871   0.000000000      65
        1   1   1   1   1   1   1   1   1   1   1   1   1   1   1   1   1   1
   1   1   1   1   1   1   1   1   1   1   1   1   1   1   1   1   1   1
   1   1   1   2   1   1   1   1   1   1   1   1   1   1   1   1   1   1
   1   1   1   1   1   1   1   1   1   1   1
       4   0.000000000   0.328470871   0.490959614      66
     No degeneracy
       5   0.333333333   0.000000000   0.000000000      66
     No degeneracy
       6   0.333333333   0.000000000   0.490959614      66
     No degeneracy
       7   0.333333333   0.328470871   0.000000000      66
     No degeneracy
       8   0.333333333   0.328470871   0.490959614      66
     No degeneracy

     Saving dvscf to file. Distribute only q points, not irreducible representations.

     Calculation of q =    0.0000000   0.0000000   0.0000000

                                                                                

     bravais-lattice index     =            8
     lattice parameter (alat)  =      12.8938  a.u.
     unit-cell volume          =    1476.9142 (a.u.)^3
     number of atoms/cell      =           22
     number of atomic types    =            3
     kinetic-energy cut-off    =     100.0000  Ry
     charge density cut-off    =     800.0000  Ry
     convergence threshold     =      1.0E-14
     beta                      =       0.7000
     number of iterations used =            4
     Exchange-correlation= PBESOL
                           (   1   4  10   8   0   0   0)


     celldm(1)=   12.89378  celldm(2)=    1.01480  celldm(3)=    0.67894
     celldm(4)=    0.00000  celldm(5)=    0.00000  celldm(6)=    0.00000

     crystal axes: (cart. coord. in units of alat)
               a(1) = (  1.0000  0.0000  0.0000 )  
               a(2) = (  0.0000  1.0148  0.0000 )  
               a(3) = (  0.0000  0.0000  0.6789 )  

     reciprocal axes: (cart. coord. in units 2 pi/alat)
               b(1) = (  1.0000  0.0000  0.0000 )  
               b(2) = (  0.0000  0.9854  0.0000 )  
               b(3) = (  0.0000  0.0000  1.4729 )  


     Atoms inside the unit cell: 

     Cartesian axes

     site n.  atom      mass           positions (alat units)
        1  Ba    137.3270   tau(    1) = (    0.50000    0.50740    0.33948  )
        2  Ba    137.3270   tau(    2) = (    0.00000    0.00000    0.67894  )
        3  B      10.8110   tau(    3) = (    0.61595    0.24726    0.00000  )
        4  B      10.8110   tau(    4) = (    0.38405    0.76754    0.00000  )
        5  B      10.8110   tau(    5) = (    0.11595    0.26014    0.33947  )
        6  B      10.8110   tau(    6) = (    0.88405    0.75466    0.33947  )
        7  H       1.0079   tau(    7) = (    0.44165    0.29447   -0.00002  )
        8  H       1.0079   tau(    8) = (    0.55835    0.72033   -0.00002  )
        9  H       1.0079   tau(    9) = (    0.94165    0.21293    0.33949  )
       10  H       1.0079   tau(   10) = (    0.05835    0.80187    0.33949  )
       11  H       1.0079   tau(   11) = (    0.72023    0.39585    0.00001  )
       12  H       1.0079   tau(   12) = (    0.27977    0.61896    0.00001  )
       13  H       1.0079   tau(   13) = (    0.22023    0.11156    0.33946  )
       14  H       1.0079   tau(   14) = (    0.77977    0.90325    0.33946  )
       15  H       1.0079   tau(   15) = (    0.64768    0.15080    0.53004  )
       16  H       1.0079   tau(   16) = (    0.35232    0.86401    0.53004  )
       17  H       1.0079   tau(   17) = (    0.14768    0.35660    0.48838  )
       18  H       1.0079   tau(   18) = (    0.85232    0.65820    0.48838  )
       19  H       1.0079   tau(   19) = (    0.35233    0.86400    0.14891  )
       20  H       1.0079   tau(   20) = (    0.64767    0.15080    0.14891  )
       21  H       1.0079   tau(   21) = (    0.85233    0.65820    0.19056  )
       22  H       1.0079   tau(   22) = (    0.14767    0.35660    0.19056  )

     Computing dynamical matrix for 
                    q = (   0.0000000   0.0000000   0.0000000 )

      5 Sym.Ops. (with q -> -q+G )


     G cutoff = 3368.9187  (  23507 G-vectors)     FFT grid: (120,120, 80)
     G cutoff = 1684.4593  (   8310 G-vectors)  smooth grid: ( 90, 90, 60)
     number of k points=    27

     PseudoPot. # 1 for B  read from file:
     /home/mehlhorn/pseudos/b_pbesol_v1.4.uspp.F.UPF
     MD5 check sum: 369b69bef2c3aeed4453bd8b804fd6a8
     Pseudo is Ultrasoft + core correction, Zval =  3.0
     Generated by new atomic code, or converted to UPF format
     Using radial grid of  781 points,  4 beta functions with: 
                l(1) =   0
                l(2) =   0
                l(3) =   1
                l(4) =   1
     Q(r) pseudized with  8 coefficients,  rinner =    1.100   1.100   1.100


     PseudoPot. # 2 for Ba read from file:
     /home/mehlhorn/pseudos/Ba.nc.z_10.oncvpsp4.dojo.v4-sp.upf
     MD5 check sum: c10ed334bb677c0554edec7181ce9143
     Pseudo is Norm-conserving + core correction, Zval = 10.0
     Generated using ONCVPSP code by D. R. Hamann
     Using radial grid of 1938 points,  8 beta functions with: 
                l(1) =   0
                l(2) =   0
                l(3) =   1
                l(4) =   1
                l(5) =   2
                l(6) =   2
                l(7) =   3
                l(8) =   3

     PseudoPot. # 3 for H  read from file:
     /home/mehlhorn/pseudos/H_ONCV_PBEsol-1.0.upf
     MD5 check sum: 398ef8f67c0a7342c05c87c5e19ea467
     Pseudo is Norm-conserving, Zval =  1.0
     Generated using ONCVPSP code by D. R. Hamann
     Using radial grid of 1180 points,  2 beta functions with: 
                l(1) =   0
                l(2) =   0

     Mode symmetry, D_2  (222)  point group:


     Electric field:
     Dielectric constant
     Born effective charges in two ways 


     Atomic displacements:
     There are   66 irreducible representations

     Representation     1      1 modes -  To be done

     Representation     2      1 modes -  To be done

     Representation     3      1 modes -  To be done

     Representation     4      1 modes -  To be done

     Representation     5      1 modes -  To be done

     Representation     6      1 modes -  To be done

     Representation     7      1 modes -  To be done

     Representation     8      1 modes -  To be done

     Representation     9      1 modes -  To be done

     Representation    10      1 modes -  To be done

     Representation    11      1 modes -  To be done

     Representation    12      1 modes -  To be done

     Representation    13      1 modes -  To be done

     Representation    14      1 modes -  To be done

     Representation    15      1 modes -  To be done

     Representation    16      1 modes -  To be done

     Representation    17      1 modes -  To be done

     Representation    18      1 modes -  To be done

     Representation    19      1 modes -  To be done

     Representation    20      1 modes -  To be done

     Representation    21      1 modes -  To be done

     Representation    22      1 modes -  To be done

     Representation    23      1 modes -  To be done

     Representation    24      1 modes -  To be done

     Representation    25      1 modes -  To be done

     Representation    26      1 modes -  To be done

     Representation    27      1 modes -  To be done

     Representation    28      1 modes -  To be done

     Representation    29      1 modes -  To be done

     Representation    30      1 modes -  To be done

     Representation    31      1 modes -  To be done

     Representation    32      1 modes -  To be done

     Representation    33      1 modes -  To be done

     Representation    34      1 modes -  To be done

     Representation    35      1 modes -  To be done

     Representation    36      1 modes -  To be done

     Representation    37      1 modes -  To be done

     Representation    38      1 modes -  To be done

     Representation    39      1 modes -  To be done

     Representation    40      1 modes -  To be done

     Representation    41      1 modes -  To be done

     Representation    42      1 modes -  To be done

     Representation    43      1 modes -  To be done

     Representation    44      1 modes -  To be done

     Representation    45      1 modes -  To be done

     Representation    46      1 modes -  To be done

     Representation    47      1 modes -  To be done

     Representation    48      1 modes -  To be done

     Representation    49      1 modes -  To be done

     Representation    50      1 modes -  To be done

     Representation    51      1 modes -  To be done

     Representation    52      1 modes -  To be done

     Representation    53      1 modes -  To be done

     Representation    54      1 modes -  To be done

     Representation    55      1 modes -  To be done

     Representation    56      1 modes -  To be done

     Representation    57      1 modes -  To be done

     Representation    58      1 modes -  To be done

     Representation    59      1 modes -  To be done

     Representation    60      1 modes -  To be done

     Representation    61      1 modes -  To be done

     Representation    62      1 modes -  To be done

     Representation    63      1 modes -  To be done

     Representation    64      1 modes -  To be done

     Representation    65      1 modes -  To be done

     Representation    66      1 modes -  To be done



     Alpha used in Ewald sum =   2.8000
     PHONON       :   3m25.86s CPU   3m29.97s WALL


     Electric Fields Calculation

      iter #   1 total cpu time :   822.9 secs   av.it.:   7.6
      thresh= 1.000E-02 alpha_mix =  0.700 |ddv_scf|^2 =  6.072E-09

      iter #   2 total cpu time :  1092.8 secs   av.it.:  16.9
      thresh= 7.792E-06 alpha_mix =  0.700 |ddv_scf|^2 =  1.013E-09

      iter #   3 total cpu time :  1359.4 secs   av.it.:  16.0
      thresh= 3.183E-06 alpha_mix =  0.700 |ddv_scf|^2 =  7.221E-11

      iter #   4 total cpu time :  1622.7 secs   av.it.:  15.7
      thresh= 8.497E-07 alpha_mix =  0.700 |ddv_scf|^2 =  1.105E-11

      iter #   5 total cpu time :  1887.2 secs   av.it.:  15.6
      thresh= 3.325E-07 alpha_mix =  0.700 |ddv_scf|^2 =  1.008E-12

      iter #   6 total cpu time :  2148.7 secs   av.it.:  15.7
      thresh= 1.004E-07 alpha_mix =  0.700 |ddv_scf|^2 =  2.397E-14

      iter #   7 total cpu time :  2413.0 secs   av.it.:  16.0
      thresh= 1.548E-08 alpha_mix =  0.700 |ddv_scf|^2 =  3.265E-15

     End of electric fields calculation

          Dielectric constant in cartesian axis 

          (       3.032997036       0.000000000       0.000000000 )
          (       0.000000000       3.086893385       0.000000000 )
          (       0.000000000       0.000000000       3.242498249 )

          Effective charges (d Force / dE) in cartesian axis without acoustic sum rule applied (asr)

           atom    1  Ba    Mean Z*:        2.63768
      Ex  (        2.46374       -0.05689        0.00000 )
      Ey  (        0.27963        2.48500       -0.00000 )
      Ez  (       -0.00000        0.00000        2.96429 )
           atom    2  Ba    Mean Z*:        2.63768
      Ex  (        2.46374        0.05689        0.00000 )
      Ey  (       -0.27963        2.48500       -0.00000 )
      Ez  (        0.00000        0.00000        2.96429 )
           atom    3  B     Mean Z*:       -0.12152
      Ex  (       -0.14140        0.02765       -0.00001 )
      Ey  (        0.17327       -0.02613        0.00002 )
      Ez  (        0.00003        0.00000       -0.19703 )
           atom    4  B     Mean Z*:       -0.12152
      Ex  (       -0.14140        0.02765        0.00001 )
      Ey  (        0.17327       -0.02613       -0.00002 )
      Ez  (       -0.00003       -0.00000       -0.19703 )
           atom    5  B     Mean Z*:       -0.12152
      Ex  (       -0.14140       -0.02765        0.00001 )
      Ey  (       -0.17327       -0.02613        0.00002 )
      Ez  (       -0.00003        0.00000       -0.19703 )
           atom    6  B     Mean Z*:       -0.12152
      Ex  (       -0.14140       -0.02765       -0.00001 )
      Ey  (       -0.17327       -0.02613       -0.00002 )
      Ez  (        0.00003       -0.00000       -0.19703 )
           atom    7  H     Mean Z*:       -0.31025
      Ex  (       -0.43683        0.13943       -0.00003 )
      Ey  (        0.14465       -0.24387        0.00004 )
      Ez  (       -0.00003        0.00004       -0.25004 )
           atom    8  H     Mean Z*:       -0.31025
      Ex  (       -0.43683        0.13943        0.00003 )
      Ey  (        0.14465       -0.24387       -0.00004 )
      Ez  (        0.00003       -0.00004       -0.25004 )
           atom    9  H     Mean Z*:       -0.31025
      Ex  (       -0.43683       -0.13943        0.00003 )
      Ey  (       -0.14465       -0.24387        0.00004 )
      Ez  (        0.00003        0.00004       -0.25004 )
           atom   10  H     Mean Z*:       -0.31025
      Ex  (       -0.43683       -0.13943       -0.00003 )
      Ey  (       -0.14465       -0.24387       -0.00004 )
      Ez  (       -0.00003       -0.00004       -0.25004 )
           atom   11  H     Mean Z*:       -0.31016
      Ex  (       -0.24939       -0.03136       -0.00000 )
      Ey  (       -0.10985       -0.43517       -0.00001 )
      Ez  (       -0.00001       -0.00001       -0.24590 )
           atom   12  H     Mean Z*:       -0.31016
      Ex  (       -0.24939       -0.03136        0.00000 )
      Ey  (       -0.10985       -0.43517        0.00001 )
      Ez  (        0.00001        0.00001       -0.24590 )
           atom   13  H     Mean Z*:       -0.31016
      Ex  (       -0.24939        0.03136        0.00000 )
      Ey  (        0.10985       -0.43517       -0.00001 )
      Ez  (        0.00001       -0.00001       -0.24590 )
           atom   14  H     Mean Z*:       -0.31016
      Ex  (       -0.24939        0.03136       -0.00000 )
      Ey  (        0.10985       -0.43517        0.00001 )
      Ez  (       -0.00001        0.00001       -0.24590 )
           atom   15  H     Mean Z*:       -0.28821
      Ex  (       -0.20227        0.15078        0.06573 )
      Ey  (        0.10363       -0.26800       -0.09834 )
      Ez  (        0.02695       -0.11376       -0.39436 )
           atom   16  H     Mean Z*:       -0.28821
      Ex  (       -0.20227        0.15078       -0.06573 )
      Ey  (        0.10363       -0.26800        0.09834 )
      Ez  (       -0.02695        0.11376       -0.39436 )
           atom   17  H     Mean Z*:       -0.28821
      Ex  (       -0.20227       -0.15078       -0.06573 )
      Ey  (       -0.10363       -0.26800       -0.09834 )
      Ez  (       -0.02695       -0.11376       -0.39436 )
           atom   18  H     Mean Z*:       -0.28821
      Ex  (       -0.20227       -0.15078        0.06573 )
      Ey  (       -0.10363       -0.26800        0.09834 )
      Ez  (        0.02695        0.11376       -0.39436 )
           atom   19  H     Mean Z*:       -0.28820
      Ex  (       -0.20223        0.15074        0.06568 )
      Ey  (        0.10360       -0.26798       -0.09833 )
      Ez  (        0.02692       -0.11375       -0.39439 )
           atom   20  H     Mean Z*:       -0.28820
      Ex  (       -0.20223        0.15074       -0.06568 )
      Ey  (        0.10360       -0.26798        0.09833 )
      Ez  (       -0.02692        0.11375       -0.39439 )
           atom   21  H     Mean Z*:       -0.28820
      Ex  (       -0.20223       -0.15074       -0.06568 )
      Ey  (       -0.10360       -0.26798       -0.09833 )
      Ez  (       -0.02692       -0.11375       -0.39439 )
           atom   22  H     Mean Z*:       -0.28820
      Ex  (       -0.20223       -0.15074        0.06568 )
      Ey  (       -0.10360       -0.26798        0.09833 )
      Ez  (        0.02692        0.11375       -0.39439 )

          Effective charges Sum: Mean:        0.00202
             -0.00098       -0.00000        0.00000
             -0.00000        0.00533       -0.00000
              0.00000       -0.00000        0.00169

          Effective charges (d Force / dE) in cartesian axis with asr applied: 
           atom    1  Ba    Mean Z*:        2.63759
      E*x (        2.46379       -0.05689       -0.00000 )
      E*y (        0.27963        2.48476       -0.00000 )
      E*z (       -0.00000        0.00000        2.96421 )
           atom    2  Ba    Mean Z*:        2.63759
      E*x (        2.46379        0.05689       -0.00000 )
      E*y (       -0.27963        2.48476       -0.00000 )
      E*z (       -0.00000        0.00000        2.96421 )
           atom    3  B     Mean Z*:       -0.12161
      E*x (       -0.14135        0.02765       -0.00001 )
      E*y (        0.17327       -0.02637        0.00002 )
      E*z (        0.00003        0.00000       -0.19711 )
           atom    4  B     Mean Z*:       -0.12161
      E*x (       -0.14135        0.02765        0.00001 )
      E*y (        0.17327       -0.02637       -0.00002 )
      E*z (       -0.00003       -0.00000       -0.19711 )
           atom    5  B     Mean Z*:       -0.12161
      E*x (       -0.14135       -0.02765        0.00001 )
      E*y (       -0.17327       -0.02637        0.00002 )
      E*z (       -0.00003        0.00000       -0.19711 )
           atom    6  B     Mean Z*:       -0.12161
      E*x (       -0.14135       -0.02765       -0.00001 )
      E*y (       -0.17327       -0.02637       -0.00002 )
      E*z (        0.00003       -0.00000       -0.19711 )
           atom    7  H     Mean Z*:       -0.31034
      E*x (       -0.43679        0.13943       -0.00003 )
      E*y (        0.14465       -0.24412        0.00004 )
      E*z (       -0.00003        0.00004       -0.25012 )
           atom    8  H     Mean Z*:       -0.31034
      E*x (       -0.43679        0.13943        0.00003 )
      E*y (        0.14465       -0.24412       -0.00004 )
      E*z (        0.00003       -0.00004       -0.25012 )
           atom    9  H     Mean Z*:       -0.31034
      E*x (       -0.43679       -0.13943        0.00003 )
      E*y (       -0.14465       -0.24412        0.00004 )
      E*z (        0.00003        0.00004       -0.25012 )
           atom   10  H     Mean Z*:       -0.31034
      E*x (       -0.43679       -0.13943       -0.00003 )
      E*y (       -0.14465       -0.24412       -0.00004 )
      E*z (       -0.00003       -0.00004       -0.25012 )
           atom   11  H     Mean Z*:       -0.31025
      E*x (       -0.24935       -0.03136       -0.00000 )
      E*y (       -0.10985       -0.43542       -0.00001 )
      E*z (       -0.00001       -0.00001       -0.24598 )
           atom   12  H     Mean Z*:       -0.31025
      E*x (       -0.24935       -0.03136        0.00000 )
      E*y (       -0.10985       -0.43542        0.00001 )
      E*z (        0.00001        0.00001       -0.24598 )
           atom   13  H     Mean Z*:       -0.31025
      E*x (       -0.24935        0.03136        0.00000 )
      E*y (        0.10985       -0.43542       -0.00001 )
      E*z (        0.00001       -0.00001       -0.24598 )
           atom   14  H     Mean Z*:       -0.31025
      E*x (       -0.24935        0.03136       -0.00000 )
      E*y (        0.10985       -0.43542        0.00001 )
      E*z (       -0.00001        0.00001       -0.24598 )
           atom   15  H     Mean Z*:       -0.28830
      E*x (       -0.20222        0.15078        0.06573 )
      E*y (        0.10363       -0.26825       -0.09834 )
      E*z (        0.02695       -0.11376       -0.39444 )
           atom   16  H     Mean Z*:       -0.28830
      E*x (       -0.20222        0.15078       -0.06573 )
      E*y (        0.10363       -0.26825        0.09834 )
      E*z (       -0.02695        0.11376       -0.39444 )
           atom   17  H     Mean Z*:       -0.28830
      E*x (       -0.20222       -0.15078       -0.06573 )
      E*y (       -0.10363       -0.26825       -0.09834 )
      E*z (       -0.02695       -0.11376       -0.39444 )
           atom   18  H     Mean Z*:       -0.28830
      E*x (       -0.20222       -0.15078        0.06573 )
      E*y (       -0.10363       -0.26825        0.09834 )
      E*z (        0.02695        0.11376       -0.39444 )
           atom   19  H     Mean Z*:       -0.28829
      E*x (       -0.20218        0.15074        0.06568 )
      E*y (        0.10360       -0.26823       -0.09833 )
      E*z (        0.02692       -0.11375       -0.39446 )
           atom   20  H     Mean Z*:       -0.28829
      E*x (       -0.20218        0.15074       -0.06568 )
      E*y (        0.10360       -0.26823        0.09833 )
      E*z (       -0.02692        0.11375       -0.39446 )
           atom   21  H     Mean Z*:       -0.28829
      E*x (       -0.20218       -0.15074       -0.06568 )
      E*y (       -0.10360       -0.26823       -0.09833 )
      E*z (       -0.02692       -0.11375       -0.39446 )
           atom   22  H     Mean Z*:       -0.28829
      E*x (       -0.20218       -0.15074        0.06568 )
      E*y (       -0.10360       -0.26823        0.09833 )
      E*z (        0.02692        0.11375       -0.39446 )


     Representation #   1 mode #   1

     Self-consistent Calculation

      iter #   1 total cpu time :  4926.9 secs   av.it.:   3.0
      thresh= 1.000E-02 alpha_mix =  0.700 |ddv_scf|^2 =  1.637E-09

      iter #   2 total cpu time :  5013.2 secs   av.it.:  15.6
      thresh= 4.046E-06 alpha_mix =  0.700 |ddv_scf|^2 =  3.375E-10

      iter #   3 total cpu time :  5096.9 secs   av.it.:  15.1
      thresh= 1.837E-06 alpha_mix =  0.700 |ddv_scf|^2 =  2.584E-12

      iter #   4 total cpu time :  5181.4 secs   av.it.:  15.6
      thresh= 1.607E-07 alpha_mix =  0.700 |ddv_scf|^2 =  4.652E-14

      iter #   5 total cpu time :  5267.4 secs   av.it.:  15.9
      thresh= 2.157E-08 alpha_mix =  0.700 |ddv_scf|^2 =  1.947E-15

     End of self-consistent calculation

     Convergence has been achieved 


     Representation #   2 mode #   2

     Self-consistent Calculation

      iter #   1 total cpu time :  5330.7 secs   av.it.:   3.0
      thresh= 1.000E-02 alpha_mix =  0.700 |ddv_scf|^2 =  1.371E-09

      iter #   2 total cpu time :  5419.9 secs   av.it.:  15.9
      thresh= 3.703E-06 alpha_mix =  0.700 |ddv_scf|^2 =  3.709E-10

      iter #   3 total cpu time :  5506.5 secs   av.it.:  15.3
      thresh= 1.926E-06 alpha_mix =  0.700 |ddv_scf|^2 =  2.953E-12

      iter #   4 total cpu time :  5594.7 secs   av.it.:  15.9
      thresh= 1.718E-07 alpha_mix =  0.700 |ddv_scf|^2 =  1.045E-13

      iter #   5 total cpu time :  5682.8 secs   av.it.:  15.9
      thresh= 3.233E-08 alpha_mix =  0.700 |ddv_scf|^2 =  4.713E-15

     End of self-consistent calculation

     Convergence has been achieved 


     Representation #   3 mode #   3

     Self-consistent Calculation

      iter #   1 total cpu time :  5746.6 secs   av.it.:   3.0
      thresh= 1.000E-02 alpha_mix =  0.700 |ddv_scf|^2 =  5.506E-10

      iter #   2 total cpu time :  5836.3 secs   av.it.:  15.9
      thresh= 2.346E-06 alpha_mix =  0.700 |ddv_scf|^2 =  4.301E-11

      iter #   3 total cpu time :  5926.1 secs   av.it.:  16.0
      thresh= 6.559E-07 alpha_mix =  0.700 |ddv_scf|^2 =  5.546E-12

      iter #   4 total cpu time :  6014.4 secs   av.it.:  15.8
      thresh= 2.355E-07 alpha_mix =  0.700 |ddv_scf|^2 =  1.044E-13

      iter #   5 total cpu time :  6102.8 secs   av.it.:  15.7
      thresh= 3.232E-08 alpha_mix =  0.700 |ddv_scf|^2 =  3.790E-15

     End of self-consistent calculation

     Convergence has been achieved 


     Representation #   4 mode #   4

     Self-consistent Calculation

      iter #   1 total cpu time :  6173.1 secs   av.it.:   5.0
      thresh= 1.000E-02 alpha_mix =  0.700 |ddv_scf|^2 =  1.120E-08

      iter #   2 total cpu time :  6263.0 secs   av.it.:  15.9
      thresh= 1.058E-05 alpha_mix =  0.700 |ddv_scf|^2 =  2.277E-09

      iter #   3 total cpu time :  6350.0 secs   av.it.:  15.1
      thresh= 4.772E-06 alpha_mix =  0.700 |ddv_scf|^2 =  1.861E-11

      iter #   4 total cpu time :  6438.4 secs   av.it.:  15.7
      thresh= 4.314E-07 alpha_mix =  0.700 |ddv_scf|^2 =  1.305E-12

      iter #   5 total cpu time :  6526.6 secs   av.it.:  15.7
      thresh= 1.143E-07 alpha_mix =  0.700 |ddv_scf|^2 =  1.616E-14

      iter #   6 total cpu time :  6615.5 secs   av.it.:  15.9
      thresh= 1.271E-08 alpha_mix =  0.700 |ddv_scf|^2 =  1.881E-16

     End of self-consistent calculation

     Convergence has been achieved 


     Representation #   5 mode #   5

     Self-consistent Calculation

      iter #   1 total cpu time :  6712.1 secs   av.it.:   6.5
      thresh= 1.000E-02 alpha_mix =  0.700 |ddv_scf|^2 =  5.621E-08

      iter #   2 total cpu time :  6800.2 secs   av.it.:  15.3
      thresh= 2.371E-05 alpha_mix =  0.700 |ddv_scf|^2 =  1.507E-08

      iter #   3 total cpu time :  6886.3 secs   av.it.:  14.6
      thresh= 1.228E-05 alpha_mix =  0.700 |ddv_scf|^2 =  3.143E-11

      iter #   4 total cpu time :  6974.0 secs   av.it.:  15.3
      thresh= 5.606E-07 alpha_mix =  0.700 |ddv_scf|^2 =  1.060E-12

      iter #   5 total cpu time :  7060.6 secs   av.it.:  14.9
      thresh= 1.030E-07 alpha_mix =  0.700 |ddv_scf|^2 =  1.068E-14

      iter #   6 total cpu time :  7144.6 secs   av.it.:  14.7
      thresh= 1.034E-08 alpha_mix =  0.700 |ddv_scf|^2 =  2.018E-16

     End of self-consistent calculation

     Convergence has been achieved 


     Representation #   6 mode #   6

     Self-consistent Calculation

      iter #   1 total cpu time :  7213.7 secs   av.it.:   3.0
      thresh= 1.000E-02 alpha_mix =  0.700 |ddv_scf|^2 =  1.639E-09

      iter #   2 total cpu time :  7302.3 secs   av.it.:  15.9
      thresh= 4.049E-06 alpha_mix =  0.700 |ddv_scf|^2 =  4.483E-10

      iter #   3 total cpu time :  7388.7 secs   av.it.:  15.4
      thresh= 2.117E-06 alpha_mix =  0.700 |ddv_scf|^2 =  4.365E-12

      iter #   4 total cpu time :  7475.9 secs   av.it.:  15.7
      thresh= 2.089E-07 alpha_mix =  0.700 |ddv_scf|^2 =  2.112E-13

      iter #   5 total cpu time :  7563.0 secs   av.it.:  15.6
      thresh= 4.595E-08 alpha_mix =  0.700 |ddv_scf|^2 =  5.072E-15

     End of self-consistent calculation

     Convergence has been achieved 


     Representation #   7 mode #   7

     Self-consistent Calculation

      iter #   1 total cpu time :  7625.7 secs   av.it.:   3.0
      thresh= 1.000E-02 alpha_mix =  0.700 |ddv_scf|^2 =  1.343E-09

      iter #   2 total cpu time :  7712.8 secs   av.it.:  15.5
      thresh= 3.665E-06 alpha_mix =  0.700 |ddv_scf|^2 =  1.148E-10

      iter #   3 total cpu time :  7801.0 secs   av.it.:  15.6
      thresh= 1.071E-06 alpha_mix =  0.700 |ddv_scf|^2 =  1.257E-12

      iter #   4 total cpu time :  7890.7 secs   av.it.:  15.9
      thresh= 1.121E-07 alpha_mix =  0.700 |ddv_scf|^2 =  1.417E-13

      iter #   5 total cpu time :  7979.9 secs   av.it.:  15.9
      thresh= 3.764E-08 alpha_mix =  0.700 |ddv_scf|^2 =  5.670E-15

     End of self-consistent calculation

     Convergence has been achieved 


     Representation #   8 mode #   8

     Self-consistent Calculation

      iter #   1 total cpu time :  8042.6 secs   av.it.:   3.0
      thresh= 1.000E-02 alpha_mix =  0.700 |ddv_scf|^2 =  7.856E-10

      iter #   2 total cpu time :  8131.5 secs   av.it.:  15.7
      thresh= 2.803E-06 alpha_mix =  0.700 |ddv_scf|^2 =  6.136E-11

      iter #   3 total cpu time :  8220.8 secs   av.it.:  15.8
      thresh= 7.833E-07 alpha_mix =  0.700 |ddv_scf|^2 =  2.003E-12

      iter #   4 total cpu time :  8310.4 secs   av.it.:  15.9
      thresh= 1.415E-07 alpha_mix =  0.700 |ddv_scf|^2 =  1.671E-13

      iter #   5 total cpu time :  8399.2 secs   av.it.:  15.8
      thresh= 4.088E-08 alpha_mix =  0.700 |ddv_scf|^2 =  5.794E-15

     End of self-consistent calculation

     Convergence has been achieved 


     Representation #   9 mode #   9

     Self-consistent Calculation

      iter #   1 total cpu time :  8469.5 secs   av.it.:   4.6
      thresh= 1.000E-02 alpha_mix =  0.700 |ddv_scf|^2 =  7.630E-09

      iter #   2 total cpu time :  8560.0 secs   av.it.:  16.0
      thresh= 8.735E-06 alpha_mix =  0.700 |ddv_scf|^2 =  1.081E-09

      iter #   3 total cpu time :  8647.4 secs   av.it.:  15.5
      thresh= 3.287E-06 alpha_mix =  0.700 |ddv_scf|^2 =  2.005E-11

      iter #   4 total cpu time :  8735.5 secs   av.it.:  15.8
      thresh= 4.478E-07 alpha_mix =  0.700 |ddv_scf|^2 =  1.550E-12

      iter #   5 total cpu time :  8824.0 secs   av.it.:  15.8
      thresh= 1.245E-07 alpha_mix =  0.700 |ddv_scf|^2 =  2.709E-14

      iter #   6 total cpu time :  8913.3 secs   av.it.:  15.9
      thresh= 1.646E-08 alpha_mix =  0.700 |ddv_scf|^2 =  2.126E-16

     End of self-consistent calculation

     Convergence has been achieved 


     Representation #  10 mode #  10

     Self-consistent Calculation

      iter #   1 total cpu time :  8994.3 secs   av.it.:   3.0
      thresh= 1.000E-02 alpha_mix =  0.700 |ddv_scf|^2 =  1.066E-09

      iter #   2 total cpu time :  9083.7 secs   av.it.:  15.9
      thresh= 3.264E-06 alpha_mix =  0.700 |ddv_scf|^2 =  1.111E-10

      iter #   3 total cpu time :  9173.5 secs   av.it.:  15.9
      thresh= 1.054E-06 alpha_mix =  0.700 |ddv_scf|^2 =  4.243E-12

      iter #   4 total cpu time :  9262.7 secs   av.it.:  15.9
      thresh= 2.060E-07 alpha_mix =  0.700 |ddv_scf|^2 =  1.764E-13

      iter #   5 total cpu time :  9351.2 secs   av.it.:  15.9
      thresh= 4.200E-08 alpha_mix =  0.700 |ddv_scf|^2 =  6.479E-15

     End of self-consistent calculation

     Convergence has been achieved 


     Representation #  11 mode #  11

     Self-consistent Calculation

      iter #   1 total cpu time :  9415.5 secs   av.it.:   3.0
      thresh= 1.000E-02 alpha_mix =  0.700 |ddv_scf|^2 =  8.144E-10

      iter #   2 total cpu time :  9507.7 secs   av.it.:  16.0
      thresh= 2.854E-06 alpha_mix =  0.700 |ddv_scf|^2 =  1.435E-10

      iter #   3 total cpu time :  9597.6 secs   av.it.:  15.7
      thresh= 1.198E-06 alpha_mix =  0.700 |ddv_scf|^2 =  6.372E-12

      iter #   4 total cpu time :  9687.4 secs   av.it.:  15.8
      thresh= 2.524E-07 alpha_mix =  0.700 |ddv_scf|^2 =  1.021E-13

      iter #   5 total cpu time :  9776.4 secs   av.it.:  15.5
      thresh= 3.195E-08 alpha_mix =  0.700 |ddv_scf|^2 =  4.393E-15

     End of self-consistent calculation

     Convergence has been achieved 


     Representation #  12 mode #  12

     Self-consistent Calculation

      iter #   1 total cpu time :  9839.2 secs   av.it.:   3.0
      thresh= 1.000E-02 alpha_mix =  0.700 |ddv_scf|^2 =  7.639E-10

      iter #   2 total cpu time :  9926.7 secs   av.it.:  15.9
      thresh= 2.764E-06 alpha_mix =  0.700 |ddv_scf|^2 =  1.142E-10

      iter #   3 total cpu time : 10016.2 secs   av.it.:  15.9
      thresh= 1.069E-06 alpha_mix =  0.700 |ddv_scf|^2 =  4.351E-12

      iter #   4 total cpu time : 10104.1 secs   av.it.:  15.9
      thresh= 2.086E-07 alpha_mix =  0.700 |ddv_scf|^2 =  2.697E-13

      iter #   5 total cpu time : 10190.1 secs   av.it.:  15.4
      thresh= 5.194E-08 alpha_mix =  0.700 |ddv_scf|^2 =  5.785E-15

     End of self-consistent calculation

     Convergence has been achieved 


     Representation #  13 mode #  13

     Self-consistent Calculation

      iter #   1 total cpu time : 10254.3 secs   av.it.:   3.5
      thresh= 1.000E-02 alpha_mix =  0.700 |ddv_scf|^2 =  1.746E-09

      iter #   2 total cpu time : 10341.2 secs   av.it.:  15.9
      thresh= 4.179E-06 alpha_mix =  0.700 |ddv_scf|^2 =  5.594E-10

      iter #   3 total cpu time : 10425.2 secs   av.it.:  15.0
      thresh= 2.365E-06 alpha_mix =  0.700 |ddv_scf|^2 =  1.780E-12

      iter #   4 total cpu time : 10511.8 secs   av.it.:  15.7
      thresh= 1.334E-07 alpha_mix =  0.700 |ddv_scf|^2 =  5.879E-14

      iter #   5 total cpu time : 10599.1 secs   av.it.:  15.9
      thresh= 2.425E-08 alpha_mix =  0.700 |ddv_scf|^2 =  2.815E-15

     End of self-consistent calculation

     Convergence has been achieved 


     Representation #  14 mode #  14

     Self-consistent Calculation

      iter #   1 total cpu time : 10667.9 secs   av.it.:   4.1
      thresh= 1.000E-02 alpha_mix =  0.700 |ddv_scf|^2 =  9.407E-09

      iter #   2 total cpu time : 10756.0 secs   av.it.:  15.5
      thresh= 9.699E-06 alpha_mix =  0.700 |ddv_scf|^2 =  1.156E-09

      iter #   3 total cpu time : 10842.9 secs   av.it.:  15.1
      thresh= 3.400E-06 alpha_mix =  0.700 |ddv_scf|^2 =  1.063E-11

      iter #   4 total cpu time : 10929.0 secs   av.it.:  15.9
      thresh= 3.260E-07 alpha_mix =  0.700 |ddv_scf|^2 =  1.532E-12

      iter #   5 total cpu time : 11016.8 secs   av.it.:  15.6
      thresh= 1.238E-07 alpha_mix =  0.700 |ddv_scf|^2 =  7.035E-14

      iter #   6 total cpu time : 11104.2 secs   av.it.:  15.3
      thresh= 2.652E-08 alpha_mix =  0.700 |ddv_scf|^2 =  1.843E-16

     End of self-consistent calculation

     Convergence has been achieved 


     Representation #  15 mode #  15

     Self-consistent Calculation

      iter #   1 total cpu time : 11185.5 secs   av.it.:   3.0
      thresh= 1.000E-02 alpha_mix =  0.700 |ddv_scf|^2 =  1.489E-09

      iter #   2 total cpu time : 11274.7 secs   av.it.:  15.9
      thresh= 3.859E-06 alpha_mix =  0.700 |ddv_scf|^2 =  2.717E-10

      iter #   3 total cpu time : 11362.6 secs   av.it.:  15.6
      thresh= 1.648E-06 alpha_mix =  0.700 |ddv_scf|^2 =  3.456E-12

      iter #   4 total cpu time : 11451.2 secs   av.it.:  15.9
      thresh= 1.859E-07 alpha_mix =  0.700 |ddv_scf|^2 =  1.327E-13

      iter #   5 total cpu time : 11539.5 secs   av.it.:  15.9
      thresh= 3.643E-08 alpha_mix =  0.700 |ddv_scf|^2 =  5.297E-15

     End of self-consistent calculation

     Convergence has been achieved 


     Representation #  16 mode #  16

     Self-consistent Calculation

      iter #   1 total cpu time : 11604.0 secs   av.it.:   3.0
      thresh= 1.000E-02 alpha_mix =  0.700 |ddv_scf|^2 =  1.614E-09

      iter #   2 total cpu time : 11694.3 secs   av.it.:  15.9
      thresh= 4.018E-06 alpha_mix =  0.700 |ddv_scf|^2 =  5.322E-10

      iter #   3 total cpu time : 11781.6 secs   av.it.:  15.2
      thresh= 2.307E-06 alpha_mix =  0.700 |ddv_scf|^2 =  1.700E-12

      iter #   4 total cpu time : 11872.1 secs   av.it.:  15.9
      thresh= 1.304E-07 alpha_mix =  0.700 |ddv_scf|^2 =  4.658E-14

      iter #   5 total cpu time : 11960.5 secs   av.it.:  15.7
      thresh= 2.158E-08 alpha_mix =  0.700 |ddv_scf|^2 =  3.018E-15

     End of self-consistent calculation

     Convergence has been achieved 


     Representation #  17 mode #  17

     Self-consistent Calculation

      iter #   1 total cpu time : 12031.3 secs   av.it.:   4.9
      thresh= 1.000E-02 alpha_mix =  0.700 |ddv_scf|^2 =  1.378E-08

      iter #   2 total cpu time : 12123.6 secs   av.it.:  15.9
      thresh= 1.174E-05 alpha_mix =  0.700 |ddv_scf|^2 =  5.875E-09

      iter #   3 total cpu time : 12208.7 secs   av.it.:  14.9
      thresh= 7.665E-06 alpha_mix =  0.700 |ddv_scf|^2 =  9.429E-11

      iter #   4 total cpu time : 12294.9 secs   av.it.:  15.1
      thresh= 9.711E-07 alpha_mix =  0.700 |ddv_scf|^2 =  6.265E-12

      iter #   5 total cpu time : 12381.3 secs   av.it.:  15.3
      thresh= 2.503E-07 alpha_mix =  0.700 |ddv_scf|^2 =  4.850E-13

      iter #   6 total cpu time : 12467.1 secs   av.it.:  15.0
      thresh= 6.965E-08 alpha_mix =  0.700 |ddv_scf|^2 =  1.193E-14

      iter #   7 total cpu time : 12555.9 secs   av.it.:  15.9
      thresh= 1.092E-08 alpha_mix =  0.700 |ddv_scf|^2 =  2.213E-15

     End of self-consistent calculation

     Convergence has been achieved 


     Representation #  18 mode #  18

     Self-consistent Calculation

      iter #   1 total cpu time : 12637.9 secs   av.it.:   3.1
      thresh= 1.000E-02 alpha_mix =  0.700 |ddv_scf|^2 =  3.683E-09

      iter #   2 total cpu time : 12726.6 secs   av.it.:  15.5
      thresh= 6.069E-06 alpha_mix =  0.700 |ddv_scf|^2 =  2.096E-09

      iter #   3 total cpu time : 12811.2 secs   av.it.:  14.9
      thresh= 4.578E-06 alpha_mix =  0.700 |ddv_scf|^2 =  3.497E-12

      iter #   4 total cpu time : 12899.9 secs   av.it.:  15.9
      thresh= 1.870E-07 alpha_mix =  0.700 |ddv_scf|^2 =  6.199E-13

      iter #   5 total cpu time : 12985.4 secs   av.it.:  15.0
      thresh= 7.874E-08 alpha_mix =  0.700 |ddv_scf|^2 =  6.285E-14

      iter #   6 total cpu time : 13069.7 secs   av.it.:  15.0
      thresh= 2.507E-08 alpha_mix =  0.700 |ddv_scf|^2 =  3.326E-15

     End of self-consistent calculation

     Convergence has been achieved 


     Representation #  19 mode #  19

     Self-consistent Calculation

      iter #   1 total cpu time : 13133.0 secs   av.it.:   3.0
      thresh= 1.000E-02 alpha_mix =  0.700 |ddv_scf|^2 =  9.737E-10

      iter #   2 total cpu time : 13222.4 secs   av.it.:  15.9
      thresh= 3.120E-06 alpha_mix =  0.700 |ddv_scf|^2 =  2.085E-10

      iter #   3 total cpu time : 13310.1 secs   av.it.:  15.7
      thresh= 1.444E-06 alpha_mix =  0.700 |ddv_scf|^2 =  1.130E-11

      iter #   4 total cpu time : 13395.7 secs   av.it.:  15.0
      thresh= 3.362E-07 alpha_mix =  0.700 |ddv_scf|^2 =  5.794E-13

      iter #   5 total cpu time : 13482.7 secs   av.it.:  15.6
      thresh= 7.612E-08 alpha_mix =  0.700 |ddv_scf|^2 =  1.169E-14

      iter #   6 total cpu time : 13570.6 secs   av.it.:  15.9
      thresh= 1.081E-08 alpha_mix =  0.700 |ddv_scf|^2 =  1.999E-15

     End of self-consistent calculation

     Convergence has been achieved 


     Representation #  20 mode #  20

     Self-consistent Calculation

      iter #   1 total cpu time : 13635.9 secs   av.it.:   3.9
      thresh= 1.000E-02 alpha_mix =  0.700 |ddv_scf|^2 =  6.076E-09

      iter #   2 total cpu time : 13724.1 secs   av.it.:  15.4
      thresh= 7.795E-06 alpha_mix =  0.700 |ddv_scf|^2 =  3.669E-09

      iter #   3 total cpu time : 13808.4 secs   av.it.:  14.7
      thresh= 6.057E-06 alpha_mix =  0.700 |ddv_scf|^2 =  1.126E-11

      iter #   4 total cpu time : 13893.1 secs   av.it.:  14.9
      thresh= 3.355E-07 alpha_mix =  0.700 |ddv_scf|^2 =  9.780E-13

      iter #   5 total cpu time : 13980.6 secs   av.it.:  15.1
      thresh= 9.889E-08 alpha_mix =  0.700 |ddv_scf|^2 =  8.438E-14

      iter #   6 total cpu time : 14066.0 secs   av.it.:  14.9
      thresh= 2.905E-08 alpha_mix =  0.700 |ddv_scf|^2 =  6.908E-15

     End of self-consistent calculation

     Convergence has been achieved 


     Representation #  21 mode #  21

     Self-consistent Calculation

      iter #   1 total cpu time : 14130.5 secs   av.it.:   3.0
      thresh= 1.000E-02 alpha_mix =  0.700 |ddv_scf|^2 =  6.660E-09

      iter #   2 total cpu time : 14217.6 secs   av.it.:  15.4
      thresh= 8.161E-06 alpha_mix =  0.700 |ddv_scf|^2 =  4.518E-09

      iter #   3 total cpu time : 14300.5 secs   av.it.:  14.9
      thresh= 6.722E-06 alpha_mix =  0.700 |ddv_scf|^2 =  4.664E-12

      iter #   4 total cpu time : 14389.5 secs   av.it.:  15.9
      thresh= 2.160E-07 alpha_mix =  0.700 |ddv_scf|^2 =  8.385E-13

      iter #   5 total cpu time : 14477.4 secs   av.it.:  15.7
      thresh= 9.157E-08 alpha_mix =  0.700 |ddv_scf|^2 =  7.560E-14

      iter #   6 total cpu time : 14564.6 secs   av.it.:  15.2
      thresh= 2.750E-08 alpha_mix =  0.700 |ddv_scf|^2 =  3.042E-15

     End of self-consistent calculation

     Convergence has been achieved 


     Representation #  22 mode #  22

     Self-consistent Calculation

      iter #   1 total cpu time : 14643.5 secs   av.it.:   6.4
      thresh= 1.000E-02 alpha_mix =  0.700 |ddv_scf|^2 =  3.846E-08

      iter #   2 total cpu time : 14730.6 secs   av.it.:  15.3
      thresh= 1.961E-05 alpha_mix =  0.700 |ddv_scf|^2 =  6.131E-09

      iter #   3 total cpu time : 14816.5 secs   av.it.:  15.1
      thresh= 7.830E-06 alpha_mix =  0.700 |ddv_scf|^2 =  2.974E-11

      iter #   4 total cpu time : 14902.7 secs   av.it.:  15.0
      thresh= 5.453E-07 alpha_mix =  0.700 |ddv_scf|^2 =  2.239E-13

      iter #   5 total cpu time : 14990.4 secs   av.it.:  15.5
      thresh= 4.732E-08 alpha_mix =  0.700 |ddv_scf|^2 =  7.940E-15

     End of self-consistent calculation

     Convergence has been achieved 


     Representation #  23 mode #  23

     Self-consistent Calculation

      iter #   1 total cpu time : 15059.4 secs   av.it.:   3.0
      thresh= 1.000E-02 alpha_mix =  0.700 |ddv_scf|^2 =  4.573E-09

      iter #   2 total cpu time : 15146.5 secs   av.it.:  15.0
      thresh= 6.762E-06 alpha_mix =  0.700 |ddv_scf|^2 =  2.384E-09

      iter #   3 total cpu time : 15230.4 secs   av.it.:  14.7
      thresh= 4.882E-06 alpha_mix =  0.700 |ddv_scf|^2 =  1.610E-11

      iter #   4 total cpu time : 15317.5 secs   av.it.:  15.0
      thresh= 4.013E-07 alpha_mix =  0.700 |ddv_scf|^2 =  1.429E-12

      iter #   5 total cpu time : 15403.1 secs   av.it.:  14.9
      thresh= 1.195E-07 alpha_mix =  0.700 |ddv_scf|^2 =  2.512E-14

      iter #   6 total cpu time : 15491.7 secs   av.it.:  15.8
      thresh= 1.585E-08 alpha_mix =  0.700 |ddv_scf|^2 =  3.562E-15

     End of self-consistent calculation

     Convergence has been achieved 


     Representation #  24 mode #  24

     Self-consistent Calculation

      iter #   1 total cpu time : 15554.7 secs   av.it.:   3.0
      thresh= 1.000E-02 alpha_mix =  0.700 |ddv_scf|^2 =  7.051E-10

      iter #   2 total cpu time : 15642.8 secs   av.it.:  15.7
      thresh= 2.655E-06 alpha_mix =  0.700 |ddv_scf|^2 =  9.971E-11

      iter #   3 total cpu time : 15729.1 secs   av.it.:  15.6
      thresh= 9.986E-07 alpha_mix =  0.700 |ddv_scf|^2 =  9.444E-12

      iter #   4 total cpu time : 15812.9 secs   av.it.:  15.0
      thresh= 3.073E-07 alpha_mix =  0.700 |ddv_scf|^2 =  6.940E-13

      iter #   5 total cpu time : 15898.6 secs   av.it.:  15.0
      thresh= 8.331E-08 alpha_mix =  0.700 |ddv_scf|^2 =  1.172E-14

      iter #   6 total cpu time : 15984.3 secs   av.it.:  15.2
      thresh= 1.083E-08 alpha_mix =  0.700 |ddv_scf|^2 =  1.154E-15

     End of self-consistent calculation

     Convergence has been achieved 


     Representation #  25 mode #  25

     Self-consistent Calculation

      iter #   1 total cpu time : 16048.5 secs   av.it.:   3.1
      thresh= 1.000E-02 alpha_mix =  0.700 |ddv_scf|^2 =  5.221E-09

      iter #   2 total cpu time : 16137.7 secs   av.it.:  15.7
      thresh= 7.226E-06 alpha_mix =  0.700 |ddv_scf|^2 =  2.874E-09

      iter #   3 total cpu time : 16223.0 secs   av.it.:  14.9
      thresh= 5.361E-06 alpha_mix =  0.700 |ddv_scf|^2 =  1.921E-11

      iter #   4 total cpu time : 16309.2 secs   av.it.:  15.0
      thresh= 4.383E-07 alpha_mix =  0.700 |ddv_scf|^2 =  1.253E-12

      iter #   5 total cpu time : 16396.9 secs   av.it.:  15.2
      thresh= 1.119E-07 alpha_mix =  0.700 |ddv_scf|^2 =  4.818E-14

      iter #   6 total cpu time : 16484.8 secs   av.it.:  15.4
      thresh= 2.195E-08 alpha_mix =  0.700 |ddv_scf|^2 =  7.753E-15

     End of self-consistent calculation

     Convergence has been achieved 


     Representation #  26 mode #  26

     Self-consistent Calculation

      iter #   1 total cpu time : 16548.6 secs   av.it.:   3.0
      thresh= 1.000E-02 alpha_mix =  0.700 |ddv_scf|^2 =  4.274E-09

      iter #   2 total cpu time : 16635.5 secs   av.it.:  15.0
      thresh= 6.538E-06 alpha_mix =  0.700 |ddv_scf|^2 =  1.392E-09

      iter #   3 total cpu time : 16719.6 secs   av.it.:  14.6
      thresh= 3.731E-06 alpha_mix =  0.700 |ddv_scf|^2 =  8.765E-12

      iter #   4 total cpu time : 16807.3 secs   av.it.:  15.0
      thresh= 2.961E-07 alpha_mix =  0.700 |ddv_scf|^2 =  1.725E-12

      iter #   5 total cpu time : 16893.4 secs   av.it.:  14.9
      thresh= 1.314E-07 alpha_mix =  0.700 |ddv_scf|^2 =  1.794E-14

      iter #   6 total cpu time : 16981.7 secs   av.it.:  15.3
      thresh= 1.339E-08 alpha_mix =  0.700 |ddv_scf|^2 =  3.662E-15

     End of self-consistent calculation

     Convergence has been achieved 


     Representation #  27 mode #  27

     Self-consistent Calculation

      iter #   1 total cpu time : 17053.4 secs   av.it.:   5.0
      thresh= 1.000E-02 alpha_mix =  0.700 |ddv_scf|^2 =  4.806E-08

      iter #   2 total cpu time : 17140.1 secs   av.it.:  14.9
      thresh= 2.192E-05 alpha_mix =  0.700 |ddv_scf|^2 =  2.797E-08

      iter #   3 total cpu time : 17223.2 secs   av.it.:  14.3
      thresh= 1.673E-05 alpha_mix =  0.700 |ddv_scf|^2 =  1.534E-10

      iter #   4 total cpu time : 17309.2 secs   av.it.:  15.0
      thresh= 1.239E-06 alpha_mix =  0.700 |ddv_scf|^2 =  6.008E-12

      iter #   5 total cpu time : 17394.4 secs   av.it.:  15.0
      thresh= 2.451E-07 alpha_mix =  0.700 |ddv_scf|^2 =  1.305E-13

      iter #   6 total cpu time : 17481.6 secs   av.it.:  15.9
      thresh= 3.613E-08 alpha_mix =  0.700 |ddv_scf|^2 =  1.799E-14

      iter #   7 total cpu time : 17567.5 secs   av.it.:  15.1
      thresh= 1.341E-08 alpha_mix =  0.700 |ddv_scf|^2 =  7.116E-16

     End of self-consistent calculation

     Convergence has been achieved 


     Representation #  28 mode #  28

     Self-consistent Calculation

      iter #   1 total cpu time : 17649.0 secs   av.it.:   3.0
      thresh= 1.000E-02 alpha_mix =  0.700 |ddv_scf|^2 =  8.151E-09

      iter #   2 total cpu time : 17733.0 secs   av.it.:  14.9
      thresh= 9.028E-06 alpha_mix =  0.700 |ddv_scf|^2 =  5.825E-09

      iter #   3 total cpu time : 17813.0 secs   av.it.:  14.0
      thresh= 7.632E-06 alpha_mix =  0.700 |ddv_scf|^2 =  4.761E-12

      iter #   4 total cpu time : 17899.4 secs   av.it.:  15.4
      thresh= 2.182E-07 alpha_mix =  0.700 |ddv_scf|^2 =  1.105E-12

      iter #   5 total cpu time : 17982.8 secs   av.it.:  14.9
      thresh= 1.051E-07 alpha_mix =  0.700 |ddv_scf|^2 =  1.213E-14

      iter #   6 total cpu time : 18069.1 secs   av.it.:  15.3
      thresh= 1.101E-08 alpha_mix =  0.700 |ddv_scf|^2 =  1.470E-15

     End of self-consistent calculation

     Convergence has been achieved 


     Representation #  29 mode #  29

     Self-consistent Calculation

      iter #   1 total cpu time : 18133.8 secs   av.it.:   3.9
      thresh= 1.000E-02 alpha_mix =  0.700 |ddv_scf|^2 =  4.385E-09

      iter #   2 total cpu time : 18220.9 secs   av.it.:  15.7
      thresh= 6.622E-06 alpha_mix =  0.700 |ddv_scf|^2 =  2.702E-09

      iter #   3 total cpu time : 18306.1 secs   av.it.:  14.9
      thresh= 5.198E-06 alpha_mix =  0.700 |ddv_scf|^2 =  2.423E-12

      iter #   4 total cpu time : 18395.5 secs   av.it.:  15.9
      thresh= 1.557E-07 alpha_mix =  0.700 |ddv_scf|^2 =  6.547E-13

      iter #   5 total cpu time : 18482.2 secs   av.it.:  15.0
      thresh= 8.092E-08 alpha_mix =  0.700 |ddv_scf|^2 =  3.798E-14

      iter #   6 total cpu time : 18568.1 secs   av.it.:  15.0
      thresh= 1.949E-08 alpha_mix =  0.700 |ddv_scf|^2 =  4.011E-15

     End of self-consistent calculation

     Convergence has been achieved 


     Representation #  30 mode #  30

     Self-consistent Calculation

      iter #   1 total cpu time : 18639.6 secs   av.it.:   5.0
      thresh= 1.000E-02 alpha_mix =  0.700 |ddv_scf|^2 =  4.992E-08

      iter #   2 total cpu time : 18726.8 secs   av.it.:  15.0
      thresh= 2.234E-05 alpha_mix =  0.700 |ddv_scf|^2 =  3.708E-08

      iter #   3 total cpu time : 18809.1 secs   av.it.:  14.2
      thresh= 1.926E-05 alpha_mix =  0.700 |ddv_scf|^2 =  6.036E-11

      iter #   4 total cpu time : 18894.5 secs   av.it.:  15.6
      thresh= 7.769E-07 alpha_mix =  0.700 |ddv_scf|^2 =  6.586E-12

      iter #   5 total cpu time : 18979.9 secs   av.it.:  15.1
      thresh= 2.566E-07 alpha_mix =  0.700 |ddv_scf|^2 =  2.891E-13

      iter #   6 total cpu time : 19067.0 secs   av.it.:  15.6
      thresh= 5.377E-08 alpha_mix =  0.700 |ddv_scf|^2 =  1.438E-14

      iter #   7 total cpu time : 19152.7 secs   av.it.:  15.9
      thresh= 1.199E-08 alpha_mix =  0.700 |ddv_scf|^2 =  1.867E-15

     End of self-consistent calculation

     Convergence has been achieved 


     Representation #  31 mode #  31

     Self-consistent Calculation

      iter #   1 total cpu time : 19232.7 secs   av.it.:   3.0
      thresh= 1.000E-02 alpha_mix =  0.700 |ddv_scf|^2 =  6.395E-09

      iter #   2 total cpu time : 19316.6 secs   av.it.:  15.0
      thresh= 7.997E-06 alpha_mix =  0.700 |ddv_scf|^2 =  3.400E-09

      iter #   3 total cpu time : 19398.5 secs   av.it.:  14.5
      thresh= 5.831E-06 alpha_mix =  0.700 |ddv_scf|^2 =  1.340E-11

      iter #   4 total cpu time : 19483.6 secs   av.it.:  15.0
      thresh= 3.661E-07 alpha_mix =  0.700 |ddv_scf|^2 =  1.763E-12

      iter #   5 total cpu time : 19566.8 secs   av.it.:  14.7
      thresh= 1.328E-07 alpha_mix =  0.700 |ddv_scf|^2 =  4.593E-14

      iter #   6 total cpu time : 19653.9 secs   av.it.:  15.1
      thresh= 2.143E-08 alpha_mix =  0.700 |ddv_scf|^2 =  8.438E-15

     End of self-consistent calculation

     Convergence has been achieved 


     Representation #  32 mode #  32

     Self-consistent Calculation

      iter #   1 total cpu time : 19718.1 secs   av.it.:   3.4
      thresh= 1.000E-02 alpha_mix =  0.700 |ddv_scf|^2 =  2.535E-09

      iter #   2 total cpu time : 19808.0 secs   av.it.:  15.9
      thresh= 5.034E-06 alpha_mix =  0.700 |ddv_scf|^2 =  1.467E-09

      iter #   3 total cpu time : 19892.3 secs   av.it.:  14.9
      thresh= 3.830E-06 alpha_mix =  0.700 |ddv_scf|^2 =  5.836E-12

      iter #   4 total cpu time : 19977.8 secs   av.it.:  15.0
      thresh= 2.416E-07 alpha_mix =  0.700 |ddv_scf|^2 =  7.210E-13

      iter #   5 total cpu time : 20063.7 secs   av.it.:  15.0
      thresh= 8.491E-08 alpha_mix =  0.700 |ddv_scf|^2 =  5.449E-14

      iter #   6 total cpu time : 20149.5 secs   av.it.:  15.0
      thresh= 2.334E-08 alpha_mix =  0.700 |ddv_scf|^2 =  6.637E-15

     End of self-consistent calculation

     Convergence has been achieved 


     Representation #  33 mode #  33

     Self-consistent Calculation

      iter #   1 total cpu time : 20214.0 secs   av.it.:   3.4
      thresh= 1.000E-02 alpha_mix =  0.700 |ddv_scf|^2 =  4.218E-09

      iter #   2 total cpu time : 20302.9 secs   av.it.:  15.9
      thresh= 6.495E-06 alpha_mix =  0.700 |ddv_scf|^2 =  3.128E-09

      iter #   3 total cpu time : 20386.5 secs   av.it.:  14.9
      thresh= 5.593E-06 alpha_mix =  0.700 |ddv_scf|^2 =  5.585E-12

      iter #   4 total cpu time : 20477.2 secs   av.it.:  15.9
      thresh= 2.363E-07 alpha_mix =  0.700 |ddv_scf|^2 =  4.735E-13

      iter #   5 total cpu time : 20567.7 secs   av.it.:  16.0
      thresh= 6.881E-08 alpha_mix =  0.700 |ddv_scf|^2 =  1.758E-14

      iter #   6 total cpu time : 20656.3 secs   av.it.:  15.8
      thresh= 1.326E-08 alpha_mix =  0.700 |ddv_scf|^2 =  1.117E-15

     End of self-consistent calculation

     Convergence has been achieved 


     Representation #  34 mode #  34

     Self-consistent Calculation

      iter #   1 total cpu time : 20718.9 secs   av.it.:   3.0
      thresh= 1.000E-02 alpha_mix =  0.700 |ddv_scf|^2 =  7.970E-10

      iter #   2 total cpu time : 20807.3 secs   av.it.:  15.7
      thresh= 2.823E-06 alpha_mix =  0.700 |ddv_scf|^2 =  8.601E-11

      iter #   3 total cpu time : 20895.4 secs   av.it.:  15.6
      thresh= 9.274E-07 alpha_mix =  0.700 |ddv_scf|^2 =  6.702E-12

      iter #   4 total cpu time : 20982.2 secs   av.it.:  15.0
      thresh= 2.589E-07 alpha_mix =  0.700 |ddv_scf|^2 =  6.094E-13

      iter #   5 total cpu time : 21068.5 secs   av.it.:  15.0
      thresh= 7.806E-08 alpha_mix =  0.700 |ddv_scf|^2 =  1.921E-14

      iter #   6 total cpu time : 21156.6 secs   av.it.:  15.6
      thresh= 1.386E-08 alpha_mix =  0.700 |ddv_scf|^2 =  8.343E-16

     End of self-consistent calculation

     Convergence has been achieved 


     Representation #  35 mode #  35

     Self-consistent Calculation

      iter #   1 total cpu time : 21219.8 secs   av.it.:   3.0
      thresh= 1.000E-02 alpha_mix =  0.700 |ddv_scf|^2 =  2.651E-09

      iter #   2 total cpu time : 21307.5 secs   av.it.:  15.6
      thresh= 5.148E-06 alpha_mix =  0.700 |ddv_scf|^2 =  1.018E-09

      iter #   3 total cpu time : 21393.3 secs   av.it.:  15.0
      thresh= 3.190E-06 alpha_mix =  0.700 |ddv_scf|^2 =  1.924E-11

      iter #   4 total cpu time : 21480.0 secs   av.it.:  15.0
      thresh= 4.387E-07 alpha_mix =  0.700 |ddv_scf|^2 =  6.176E-13

      iter #   5 total cpu time : 21568.3 secs   av.it.:  15.7
      thresh= 7.859E-08 alpha_mix =  0.700 |ddv_scf|^2 =  3.470E-14

      iter #   6 total cpu time : 21655.7 secs   av.it.:  15.2
      thresh= 1.863E-08 alpha_mix =  0.700 |ddv_scf|^2 =  1.360E-15

     End of self-consistent calculation

     Convergence has been achieved 


     Representation #  36 mode #  36

     Self-consistent Calculation

      iter #   1 total cpu time : 21725.2 secs   av.it.:   4.1
      thresh= 1.000E-02 alpha_mix =  0.700 |ddv_scf|^2 =  5.374E-09

      iter #   2 total cpu time : 21815.3 secs   av.it.:  16.0
      thresh= 7.331E-06 alpha_mix =  0.700 |ddv_scf|^2 =  3.538E-10

      iter #   3 total cpu time : 21905.8 secs   av.it.:  15.9
      thresh= 1.881E-06 alpha_mix =  0.700 |ddv_scf|^2 =  1.238E-11

      iter #   4 total cpu time : 21995.6 secs   av.it.:  15.8
      thresh= 3.519E-07 alpha_mix =  0.700 |ddv_scf|^2 =  3.593E-12

      iter #   5 total cpu time : 22083.0 secs   av.it.:  15.0
      thresh= 1.896E-07 alpha_mix =  0.700 |ddv_scf|^2 =  9.458E-14

      iter #   6 total cpu time : 22172.1 secs   av.it.:  15.6
      thresh= 3.075E-08 alpha_mix =  0.700 |ddv_scf|^2 =  3.660E-15

     End of self-consistent calculation

     Convergence has been achieved 


     Representation #  37 mode #  37

     Self-consistent Calculation

      iter #   1 total cpu time : 22253.1 secs   av.it.:   3.0
      thresh= 1.000E-02 alpha_mix =  0.700 |ddv_scf|^2 =  8.451E-10

      iter #   2 total cpu time : 22342.4 secs   av.it.:  15.9
      thresh= 2.907E-06 alpha_mix =  0.700 |ddv_scf|^2 =  1.417E-10

      iter #   3 total cpu time : 22428.3 secs   av.it.:  15.4
      thresh= 1.191E-06 alpha_mix =  0.700 |ddv_scf|^2 =  1.862E-11

      iter #   4 total cpu time : 22514.1 secs   av.it.:  15.0
      thresh= 4.316E-07 alpha_mix =  0.700 |ddv_scf|^2 =  2.827E-13

      iter #   5 total cpu time : 22602.1 secs   av.it.:  15.4
      thresh= 5.317E-08 alpha_mix =  0.700 |ddv_scf|^2 =  6.334E-15

     End of self-consistent calculation

     Convergence has been achieved 


     Representation #  38 mode #  38

     Self-consistent Calculation

      iter #   1 total cpu time : 22666.5 secs   av.it.:   3.0
      thresh= 1.000E-02 alpha_mix =  0.700 |ddv_scf|^2 =  1.717E-09

      iter #   2 total cpu time : 22755.5 secs   av.it.:  15.8
      thresh= 4.144E-06 alpha_mix =  0.700 |ddv_scf|^2 =  3.676E-10

      iter #   3 total cpu time : 22841.7 secs   av.it.:  15.0
      thresh= 1.917E-06 alpha_mix =  0.700 |ddv_scf|^2 =  1.386E-11

      iter #   4 total cpu time : 22927.1 secs   av.it.:  15.0
      thresh= 3.723E-07 alpha_mix =  0.700 |ddv_scf|^2 =  9.315E-13

      iter #   5 total cpu time : 23013.1 secs   av.it.:  15.0
      thresh= 9.652E-08 alpha_mix =  0.700 |ddv_scf|^2 =  2.322E-14

      iter #   6 total cpu time : 23100.1 secs   av.it.:  15.7
      thresh= 1.524E-08 alpha_mix =  0.700 |ddv_scf|^2 =  1.008E-15

     End of self-consistent calculation

     Convergence has been achieved 


     Representation #  39 mode #  39

     Self-consistent Calculation

      iter #   1 total cpu time : 23178.4 secs   av.it.:   6.1
      thresh= 1.000E-02 alpha_mix =  0.700 |ddv_scf|^2 =  2.080E-07

      iter #   2 total cpu time : 23264.6 secs   av.it.:  15.1
      thresh= 4.561E-05 alpha_mix =  0.700 |ddv_scf|^2 =  1.021E-07

      iter #   3 total cpu time : 23348.4 secs   av.it.:  14.7
      thresh= 3.196E-05 alpha_mix =  0.700 |ddv_scf|^2 =  5.144E-10

      iter #   4 total cpu time : 23435.0 secs   av.it.:  15.2
      thresh= 2.268E-06 alpha_mix =  0.700 |ddv_scf|^2 =  1.182E-11

      iter #   5 total cpu time : 23523.2 secs   av.it.:  15.6
      thresh= 3.438E-07 alpha_mix =  0.700 |ddv_scf|^2 =  5.378E-13

      iter #   6 total cpu time : 23607.8 secs   av.it.:  14.8
      thresh= 7.334E-08 alpha_mix =  0.700 |ddv_scf|^2 =  4.998E-14

      iter #   7 total cpu time : 23690.6 secs   av.it.:  14.5
      thresh= 2.236E-08 alpha_mix =  0.700 |ddv_scf|^2 =  5.148E-15

     End of self-consistent calculation

     Convergence has been achieved 


     Representation #  40 mode #  40

     Self-consistent Calculation

      iter #   1 total cpu time : 23765.9 secs   av.it.:   4.6
      thresh= 1.000E-02 alpha_mix =  0.700 |ddv_scf|^2 =  8.587E-09

      iter #   2 total cpu time : 23856.6 secs   av.it.:  15.9
      thresh= 9.267E-06 alpha_mix =  0.700 |ddv_scf|^2 =  1.865E-09

      iter #   3 total cpu time : 23943.9 secs   av.it.:  15.3
      thresh= 4.319E-06 alpha_mix =  0.700 |ddv_scf|^2 =  4.422E-11

      iter #   4 total cpu time : 24029.7 secs   av.it.:  15.1
      thresh= 6.650E-07 alpha_mix =  0.700 |ddv_scf|^2 =  5.827E-12

      iter #   5 total cpu time : 24116.4 secs   av.it.:  15.0
      thresh= 2.414E-07 alpha_mix =  0.700 |ddv_scf|^2 =  3.635E-13

      iter #   6 total cpu time : 24203.9 secs   av.it.:  15.5
      thresh= 6.029E-08 alpha_mix =  0.700 |ddv_scf|^2 =  1.270E-15

     End of self-consistent calculation

     Convergence has been achieved 


     Representation #  41 mode #  41

     Self-consistent Calculation

      iter #   1 total cpu time : 24287.1 secs   av.it.:   3.9
      thresh= 1.000E-02 alpha_mix =  0.700 |ddv_scf|^2 =  6.099E-09

      iter #   2 total cpu time : 24374.8 secs   av.it.:  15.5
      thresh= 7.810E-06 alpha_mix =  0.700 |ddv_scf|^2 =  4.050E-09

      iter #   3 total cpu time : 24458.6 secs   av.it.:  14.8
      thresh= 6.364E-06 alpha_mix =  0.700 |ddv_scf|^2 =  4.219E-12

      iter #   4 total cpu time : 24547.5 secs   av.it.:  15.9
      thresh= 2.054E-07 alpha_mix =  0.700 |ddv_scf|^2 =  7.145E-13

      iter #   5 total cpu time : 24635.0 secs   av.it.:  15.3
      thresh= 8.453E-08 alpha_mix =  0.700 |ddv_scf|^2 =  5.207E-14

      iter #   6 total cpu time : 24722.6 secs   av.it.:  15.0
      thresh= 2.282E-08 alpha_mix =  0.700 |ddv_scf|^2 =  7.210E-16

     End of self-consistent calculation

     Convergence has been achieved 


     Representation #  42 mode #  42

     Self-consistent Calculation

      iter #   1 total cpu time : 24785.1 secs   av.it.:   3.0
      thresh= 1.000E-02 alpha_mix =  0.700 |ddv_scf|^2 =  3.698E-10

      iter #   2 total cpu time : 24875.1 secs   av.it.:  15.8
      thresh= 1.923E-06 alpha_mix =  0.700 |ddv_scf|^2 =  6.481E-11

      iter #   3 total cpu time : 24962.8 secs   av.it.:  15.3
      thresh= 8.050E-07 alpha_mix =  0.700 |ddv_scf|^2 =  1.949E-11

      iter #   4 total cpu time : 25048.1 secs   av.it.:  14.9
      thresh= 4.415E-07 alpha_mix =  0.700 |ddv_scf|^2 =  1.952E-13

      iter #   5 total cpu time : 25136.7 secs   av.it.:  15.7
      thresh= 4.418E-08 alpha_mix =  0.700 |ddv_scf|^2 =  1.226E-14

      iter #   6 total cpu time : 25224.6 secs   av.it.:  15.3
      thresh= 1.107E-08 alpha_mix =  0.700 |ddv_scf|^2 =  5.315E-16

     End of self-consistent calculation

     Convergence has been achieved 


     Representation #  43 mode #  43

     Self-consistent Calculation

      iter #   1 total cpu time : 25293.7 secs   av.it.:   4.1
      thresh= 1.000E-02 alpha_mix =  0.700 |ddv_scf|^2 =  5.542E-09

      iter #   2 total cpu time : 25380.7 secs   av.it.:  16.0
      thresh= 7.445E-06 alpha_mix =  0.700 |ddv_scf|^2 =  3.970E-10

      iter #   3 total cpu time : 25466.8 secs   av.it.:  15.9
      thresh= 1.992E-06 alpha_mix =  0.700 |ddv_scf|^2 =  2.210E-11

      iter #   4 total cpu time : 25551.9 secs   av.it.:  15.2
      thresh= 4.701E-07 alpha_mix =  0.700 |ddv_scf|^2 =  4.705E-12

      iter #   5 total cpu time : 25634.8 secs   av.it.:  15.0
      thresh= 2.169E-07 alpha_mix =  0.700 |ddv_scf|^2 =  1.668E-14

      iter #   6 total cpu time : 25723.5 secs   av.it.:  15.9
      thresh= 1.291E-08 alpha_mix =  0.700 |ddv_scf|^2 =  5.097E-16

     End of self-consistent calculation

     Convergence has been achieved 


     Representation #  44 mode #  44

     Self-consistent Calculation

      iter #   1 total cpu time : 25820.0 secs   av.it.:   6.3
      thresh= 1.000E-02 alpha_mix =  0.700 |ddv_scf|^2 =  7.405E-08

      iter #   2 total cpu time : 25907.9 secs   av.it.:  15.6
      thresh= 2.721E-05 alpha_mix =  0.700 |ddv_scf|^2 =  2.270E-08

      iter #   3 total cpu time : 25994.4 secs   av.it.:  15.0
      thresh= 1.507E-05 alpha_mix =  0.700 |ddv_scf|^2 =  2.955E-10

      iter #   4 total cpu time : 26081.1 secs   av.it.:  14.9
      thresh= 1.719E-06 alpha_mix =  0.700 |ddv_scf|^2 =  1.968E-11

      iter #   5 total cpu time : 26168.8 secs   av.it.:  14.9
      thresh= 4.437E-07 alpha_mix =  0.700 |ddv_scf|^2 =  2.034E-13

      iter #   6 total cpu time : 26254.2 secs   av.it.:  15.6
      thresh= 4.510E-08 alpha_mix =  0.700 |ddv_scf|^2 =  7.892E-15

     End of self-consistent calculation

     Convergence has been achieved 


     Representation #  45 mode #  45

     Self-consistent Calculation

      iter #   1 total cpu time : 26322.2 secs   av.it.:   3.0
      thresh= 1.000E-02 alpha_mix =  0.700 |ddv_scf|^2 =  1.141E-09

      iter #   2 total cpu time : 26410.4 secs   av.it.:  15.9
      thresh= 3.378E-06 alpha_mix =  0.700 |ddv_scf|^2 =  2.879E-10

      iter #   3 total cpu time : 26496.6 secs   av.it.:  15.0
      thresh= 1.697E-06 alpha_mix =  0.700 |ddv_scf|^2 =  1.575E-11

      iter #   4 total cpu time : 26582.7 secs   av.it.:  15.0
      thresh= 3.969E-07 alpha_mix =  0.700 |ddv_scf|^2 =  4.300E-13

      iter #   5 total cpu time : 26672.3 secs   av.it.:  15.6
      thresh= 6.557E-08 alpha_mix =  0.700 |ddv_scf|^2 =  2.216E-14

      iter #   6 total cpu time : 26761.9 secs   av.it.:  15.4
      thresh= 1.489E-08 alpha_mix =  0.700 |ddv_scf|^2 =  1.214E-15

     End of self-consistent calculation

     Convergence has been achieved 


     Representation #  46 mode #  46

     Self-consistent Calculation

      iter #   1 total cpu time : 26826.9 secs   av.it.:   3.0
      thresh= 1.000E-02 alpha_mix =  0.700 |ddv_scf|^2 =  2.447E-09

      iter #   2 total cpu time : 26918.4 secs   av.it.:  15.9
      thresh= 4.947E-06 alpha_mix =  0.700 |ddv_scf|^2 =  1.850E-09

      iter #   3 total cpu time : 27003.8 secs   av.it.:  14.9
      thresh= 4.302E-06 alpha_mix =  0.700 |ddv_scf|^2 =  4.998E-12

      iter #   4 total cpu time : 27096.3 secs   av.it.:  16.0
      thresh= 2.236E-07 alpha_mix =  0.700 |ddv_scf|^2 =  5.121E-13

      iter #   5 total cpu time : 27188.2 secs   av.it.:  16.0
      thresh= 7.156E-08 alpha_mix =  0.700 |ddv_scf|^2 =  8.262E-15

     End of self-consistent calculation

     Convergence has been achieved 


     Representation #  47 mode #  47

     Self-consistent Calculation

      iter #   1 total cpu time : 27253.6 secs   av.it.:   3.6
      thresh= 1.000E-02 alpha_mix =  0.700 |ddv_scf|^2 =  2.749E-09

      iter #   2 total cpu time : 27342.5 secs   av.it.:  15.9
      thresh= 5.244E-06 alpha_mix =  0.700 |ddv_scf|^2 =  2.130E-09

      iter #   3 total cpu time : 27426.2 secs   av.it.:  14.9
      thresh= 4.615E-06 alpha_mix =  0.700 |ddv_scf|^2 =  6.048E-12

      iter #   4 total cpu time : 27516.0 secs   av.it.:  15.9
      thresh= 2.459E-07 alpha_mix =  0.700 |ddv_scf|^2 =  5.094E-13

      iter #   5 total cpu time : 27604.7 secs   av.it.:  15.8
      thresh= 7.137E-08 alpha_mix =  0.700 |ddv_scf|^2 =  1.062E-14

      iter #   6 total cpu time : 27693.5 secs   av.it.:  15.9
      thresh= 1.031E-08 alpha_mix =  0.700 |ddv_scf|^2 =  1.014E-15

     End of self-consistent calculation

     Convergence has been achieved 


     Representation #  48 mode #  48

     Self-consistent Calculation

      iter #   1 total cpu time : 27756.0 secs   av.it.:   3.0
      thresh= 1.000E-02 alpha_mix =  0.700 |ddv_scf|^2 =  3.693E-10

      iter #   2 total cpu time : 27846.1 secs   av.it.:  15.9
      thresh= 1.922E-06 alpha_mix =  0.700 |ddv_scf|^2 =  2.085E-11

      iter #   3 total cpu time : 27937.2 secs   av.it.:  16.0
      thresh= 4.566E-07 alpha_mix =  0.700 |ddv_scf|^2 =  5.998E-12

      iter #   4 total cpu time : 28026.1 secs   av.it.:  15.1
      thresh= 2.449E-07 alpha_mix =  0.700 |ddv_scf|^2 =  3.332E-13

      iter #   5 total cpu time : 28112.7 secs   av.it.:  15.2
      thresh= 5.773E-08 alpha_mix =  0.700 |ddv_scf|^2 =  1.657E-14

      iter #   6 total cpu time : 28198.6 secs   av.it.:  15.0
      thresh= 1.287E-08 alpha_mix =  0.700 |ddv_scf|^2 =  5.515E-16

     End of self-consistent calculation

     Convergence has been achieved 


     Representation #  49 mode #  49

     Self-consistent Calculation

      iter #   1 total cpu time : 28261.9 secs   av.it.:   3.0
      thresh= 1.000E-02 alpha_mix =  0.700 |ddv_scf|^2 =  1.211E-09

      iter #   2 total cpu time : 28351.1 secs   av.it.:  15.9
      thresh= 3.480E-06 alpha_mix =  0.700 |ddv_scf|^2 =  6.692E-10

      iter #   3 total cpu time : 28435.3 secs   av.it.:  14.9
      thresh= 2.587E-06 alpha_mix =  0.700 |ddv_scf|^2 =  7.222E-12

      iter #   4 total cpu time : 28522.4 secs   av.it.:  15.6
      thresh= 2.687E-07 alpha_mix =  0.700 |ddv_scf|^2 =  4.672E-13

      iter #   5 total cpu time : 28610.5 secs   av.it.:  15.9
      thresh= 6.836E-08 alpha_mix =  0.700 |ddv_scf|^2 =  1.681E-14

      iter #   6 total cpu time : 28698.7 secs   av.it.:  15.9
      thresh= 1.297E-08 alpha_mix =  0.700 |ddv_scf|^2 =  8.096E-16

     End of self-consistent calculation

     Convergence has been achieved 


     Representation #  50 mode #  50

     Self-consistent Calculation

      iter #   1 total cpu time : 28768.8 secs   av.it.:   4.6
      thresh= 1.000E-02 alpha_mix =  0.700 |ddv_scf|^2 =  9.647E-09

      iter #   2 total cpu time : 28858.3 secs   av.it.:  15.9
      thresh= 9.822E-06 alpha_mix =  0.700 |ddv_scf|^2 =  3.707E-09

      iter #   3 total cpu time : 28942.8 secs   av.it.:  15.0
      thresh= 6.089E-06 alpha_mix =  0.700 |ddv_scf|^2 =  1.254E-10

      iter #   4 total cpu time : 29027.7 secs   av.it.:  15.0
      thresh= 1.120E-06 alpha_mix =  0.700 |ddv_scf|^2 =  2.617E-12

      iter #   5 total cpu time : 29114.4 secs   av.it.:  15.6
      thresh= 1.618E-07 alpha_mix =  0.700 |ddv_scf|^2 =  4.144E-13

      iter #   6 total cpu time : 29199.3 secs   av.it.:  15.0
      thresh= 6.438E-08 alpha_mix =  0.700 |ddv_scf|^2 =  1.748E-15

     End of self-consistent calculation

     Convergence has been achieved 


     Representation #  51 mode #  51

     Self-consistent Calculation

      iter #   1 total cpu time : 29280.8 secs   av.it.:   3.1
      thresh= 1.000E-02 alpha_mix =  0.700 |ddv_scf|^2 =  2.891E-09

      iter #   2 total cpu time : 29369.3 secs   av.it.:  15.9
      thresh= 5.377E-06 alpha_mix =  0.700 |ddv_scf|^2 =  2.234E-09

      iter #   3 total cpu time : 29454.2 secs   av.it.:  14.9
      thresh= 4.727E-06 alpha_mix =  0.700 |ddv_scf|^2 =  4.633E-12

      iter #   4 total cpu time : 29546.3 secs   av.it.:  16.0
      thresh= 2.153E-07 alpha_mix =  0.700 |ddv_scf|^2 =  9.533E-13

      iter #   5 total cpu time : 29635.8 secs   av.it.:  15.7
      thresh= 9.764E-08 alpha_mix =  0.700 |ddv_scf|^2 =  5.094E-14

      iter #   6 total cpu time : 29724.9 secs   av.it.:  15.4
      thresh= 2.257E-08 alpha_mix =  0.700 |ddv_scf|^2 =  2.662E-15

     End of self-consistent calculation

     Convergence has been achieved 


     Representation #  52 mode #  52

     Self-consistent Calculation

      iter #   1 total cpu time : 29789.5 secs   av.it.:   3.1
      thresh= 1.000E-02 alpha_mix =  0.700 |ddv_scf|^2 =  2.300E-09

      iter #   2 total cpu time : 29880.5 secs   av.it.:  15.9
      thresh= 4.796E-06 alpha_mix =  0.700 |ddv_scf|^2 =  1.199E-09

      iter #   3 total cpu time : 29967.2 secs   av.it.:  14.9
      thresh= 3.463E-06 alpha_mix =  0.700 |ddv_scf|^2 =  1.216E-11

      iter #   4 total cpu time : 30055.4 secs   av.it.:  15.0
      thresh= 3.487E-07 alpha_mix =  0.700 |ddv_scf|^2 =  1.096E-12

      iter #   5 total cpu time : 30143.9 secs   av.it.:  15.2
      thresh= 1.047E-07 alpha_mix =  0.700 |ddv_scf|^2 =  5.506E-14

      iter #   6 total cpu time : 30232.6 secs   av.it.:  15.1
      thresh= 2.347E-08 alpha_mix =  0.700 |ddv_scf|^2 =  1.526E-15

     End of self-consistent calculation

     Convergence has been achieved 


     Representation #  53 mode #  53

     Self-consistent Calculation

      iter #   1 total cpu time : 30296.9 secs   av.it.:   3.0
      thresh= 1.000E-02 alpha_mix =  0.700 |ddv_scf|^2 =  1.336E-09

      iter #   2 total cpu time : 30388.2 secs   av.it.:  15.9
      thresh= 3.655E-06 alpha_mix =  0.700 |ddv_scf|^2 =  5.845E-10

      iter #   3 total cpu time : 30475.4 secs   av.it.:  15.0
      thresh= 2.418E-06 alpha_mix =  0.700 |ddv_scf|^2 =  8.285E-12

      iter #   4 total cpu time : 30564.4 secs   av.it.:  15.4
      thresh= 2.878E-07 alpha_mix =  0.700 |ddv_scf|^2 =  1.055E-12

      iter #   5 total cpu time : 30652.0 secs   av.it.:  15.0
      thresh= 1.027E-07 alpha_mix =  0.700 |ddv_scf|^2 =  6.073E-14

      iter #   6 total cpu time : 30740.7 secs   av.it.:  15.3
      thresh= 2.464E-08 alpha_mix =  0.700 |ddv_scf|^2 =  1.744E-15

     End of self-consistent calculation

     Convergence has been achieved 


     Representation #  54 mode #  54

     Self-consistent Calculation

      iter #   1 total cpu time : 30805.7 secs   av.it.:   3.0
      thresh= 1.000E-02 alpha_mix =  0.700 |ddv_scf|^2 =  3.801E-09

      iter #   2 total cpu time : 30893.1 secs   av.it.:  15.4
      thresh= 6.165E-06 alpha_mix =  0.700 |ddv_scf|^2 =  2.579E-09

      iter #   3 total cpu time : 30975.9 secs   av.it.:  14.6
      thresh= 5.078E-06 alpha_mix =  0.700 |ddv_scf|^2 =  6.202E-12

      iter #   4 total cpu time : 31063.7 secs   av.it.:  15.7
      thresh= 2.490E-07 alpha_mix =  0.700 |ddv_scf|^2 =  7.407E-13

      iter #   5 total cpu time : 31151.4 secs   av.it.:  15.2
      thresh= 8.606E-08 alpha_mix =  0.700 |ddv_scf|^2 =  2.395E-14

      iter #   6 total cpu time : 31240.3 secs   av.it.:  15.9
      thresh= 1.548E-08 alpha_mix =  0.700 |ddv_scf|^2 =  2.096E-15

     End of self-consistent calculation

     Convergence has been achieved 


     Representation #  55 mode #  55

     Self-consistent Calculation

      iter #   1 total cpu time : 31303.2 secs   av.it.:   3.0
      thresh= 1.000E-02 alpha_mix =  0.700 |ddv_scf|^2 =  6.313E-10

      iter #   2 total cpu time : 31393.9 secs   av.it.:  16.0
      thresh= 2.513E-06 alpha_mix =  0.700 |ddv_scf|^2 =  1.397E-10

      iter #   3 total cpu time : 31480.1 secs   av.it.:  15.6
      thresh= 1.182E-06 alpha_mix =  0.700 |ddv_scf|^2 =  7.033E-12

      iter #   4 total cpu time : 31564.3 secs   av.it.:  15.4
      thresh= 2.652E-07 alpha_mix =  0.700 |ddv_scf|^2 =  1.728E-13

      iter #   5 total cpu time : 31651.8 secs   av.it.:  15.8
      thresh= 4.157E-08 alpha_mix =  0.700 |ddv_scf|^2 =  2.962E-14

      iter #   6 total cpu time : 31736.9 secs   av.it.:  14.9
      thresh= 1.721E-08 alpha_mix =  0.700 |ddv_scf|^2 =  1.702E-15

     End of self-consistent calculation

     Convergence has been achieved 


     Representation #  56 mode #  56

     Self-consistent Calculation

      iter #   1 total cpu time : 31817.1 secs   av.it.:   6.7
      thresh= 1.000E-02 alpha_mix =  0.700 |ddv_scf|^2 =  2.132E-07

      iter #   2 total cpu time : 31901.2 secs   av.it.:  15.2
      thresh= 4.617E-05 alpha_mix =  0.700 |ddv_scf|^2 =  1.655E-07

      iter #   3 total cpu time : 31982.2 secs   av.it.:  14.4
      thresh= 4.068E-05 alpha_mix =  0.700 |ddv_scf|^2 =  1.302E-10

      iter #   4 total cpu time : 32072.2 secs   av.it.:  15.7
      thresh= 1.141E-06 alpha_mix =  0.700 |ddv_scf|^2 =  2.161E-11

      iter #   5 total cpu time : 32161.0 secs   av.it.:  15.6
      thresh= 4.648E-07 alpha_mix =  0.700 |ddv_scf|^2 =  1.066E-12

      iter #   6 total cpu time : 32250.4 secs   av.it.:  15.5
      thresh= 1.033E-07 alpha_mix =  0.700 |ddv_scf|^2 =  2.713E-14

      iter #   7 total cpu time : 32338.3 secs   av.it.:  15.6
      thresh= 1.647E-08 alpha_mix =  0.700 |ddv_scf|^2 =  2.105E-15

     End of self-consistent calculation

     Convergence has been achieved 


     Representation #  57 mode #  57

     Self-consistent Calculation

      iter #   1 total cpu time : 32413.1 secs   av.it.:   5.0
      thresh= 1.000E-02 alpha_mix =  0.700 |ddv_scf|^2 =  3.370E-08

      iter #   2 total cpu time : 32498.3 secs   av.it.:  15.3
      thresh= 1.836E-05 alpha_mix =  0.700 |ddv_scf|^2 =  2.285E-08

      iter #   3 total cpu time : 32580.6 secs   av.it.:  14.6
      thresh= 1.512E-05 alpha_mix =  0.700 |ddv_scf|^2 =  5.483E-11

      iter #   4 total cpu time : 32669.2 secs   av.it.:  15.9
      thresh= 7.405E-07 alpha_mix =  0.700 |ddv_scf|^2 =  5.168E-12

      iter #   5 total cpu time : 32758.3 secs   av.it.:  15.7
      thresh= 2.273E-07 alpha_mix =  0.700 |ddv_scf|^2 =  8.447E-13

      iter #   6 total cpu time : 32847.7 secs   av.it.:  15.5
      thresh= 9.191E-08 alpha_mix =  0.700 |ddv_scf|^2 =  6.166E-15

     End of self-consistent calculation

     Convergence has been achieved 


     Representation #  58 mode #  58

     Self-consistent Calculation

      iter #   1 total cpu time : 32927.8 secs   av.it.:   3.0
      thresh= 1.000E-02 alpha_mix =  0.700 |ddv_scf|^2 =  8.587E-10

      iter #   2 total cpu time : 33014.8 secs   av.it.:  15.8
      thresh= 2.930E-06 alpha_mix =  0.700 |ddv_scf|^2 =  3.769E-10

      iter #   3 total cpu time : 33098.0 secs   av.it.:  14.9
      thresh= 1.942E-06 alpha_mix =  0.700 |ddv_scf|^2 =  1.099E-11

      iter #   4 total cpu time : 33183.5 secs   av.it.:  15.0
      thresh= 3.316E-07 alpha_mix =  0.700 |ddv_scf|^2 =  3.272E-13

      iter #   5 total cpu time : 33270.3 secs   av.it.:  15.4
      thresh= 5.720E-08 alpha_mix =  0.700 |ddv_scf|^2 =  1.694E-14

      iter #   6 total cpu time : 33357.9 secs   av.it.:  15.7
      thresh= 1.302E-08 alpha_mix =  0.700 |ddv_scf|^2 =  1.499E-15

     End of self-consistent calculation

     Convergence has been achieved 


     Representation #  59 mode #  59

     Self-consistent Calculation

      iter #   1 total cpu time : 33421.1 secs   av.it.:   3.0
      thresh= 1.000E-02 alpha_mix =  0.700 |ddv_scf|^2 =  1.535E-09

      iter #   2 total cpu time : 33509.6 secs   av.it.:  15.9
      thresh= 3.918E-06 alpha_mix =  0.700 |ddv_scf|^2 =  7.129E-10

      iter #   3 total cpu time : 33595.2 secs   av.it.:  14.9
      thresh= 2.670E-06 alpha_mix =  0.700 |ddv_scf|^2 =  1.131E-11

      iter #   4 total cpu time : 33682.4 secs   av.it.:  15.0
      thresh= 3.363E-07 alpha_mix =  0.700 |ddv_scf|^2 =  1.024E-12

      iter #   5 total cpu time : 33769.8 secs   av.it.:  15.1
      thresh= 1.012E-07 alpha_mix =  0.700 |ddv_scf|^2 =  4.984E-14

      iter #   6 total cpu time : 33857.4 secs   av.it.:  15.2
      thresh= 2.232E-08 alpha_mix =  0.700 |ddv_scf|^2 =  1.721E-15

     End of self-consistent calculation

     Convergence has been achieved 


     Representation #  60 mode #  60

     Self-consistent Calculation

      iter #   1 total cpu time : 33921.1 secs   av.it.:   3.0
      thresh= 1.000E-02 alpha_mix =  0.700 |ddv_scf|^2 =  2.115E-09

      iter #   2 total cpu time : 34009.6 secs   av.it.:  15.9
      thresh= 4.599E-06 alpha_mix =  0.700 |ddv_scf|^2 =  1.193E-09

      iter #   3 total cpu time : 34093.9 secs   av.it.:  14.9
      thresh= 3.454E-06 alpha_mix =  0.700 |ddv_scf|^2 =  5.321E-12

      iter #   4 total cpu time : 34181.0 secs   av.it.:  15.9
      thresh= 2.307E-07 alpha_mix =  0.700 |ddv_scf|^2 =  1.605E-12

      iter #   5 total cpu time : 34265.7 secs   av.it.:  15.0
      thresh= 1.267E-07 alpha_mix =  0.700 |ddv_scf|^2 =  4.520E-14

      iter #   6 total cpu time : 34352.6 secs   av.it.:  15.8
      thresh= 2.126E-08 alpha_mix =  0.700 |ddv_scf|^2 =  2.261E-15

     End of self-consistent calculation

     Convergence has been achieved 


     Representation #  61 mode #  61

     Self-consistent Calculation

      iter #   1 total cpu time : 34416.8 secs   av.it.:   3.2
      thresh= 1.000E-02 alpha_mix =  0.700 |ddv_scf|^2 =  5.601E-09

      iter #   2 total cpu time : 34502.8 secs   av.it.:  15.3
      thresh= 7.484E-06 alpha_mix =  0.700 |ddv_scf|^2 =  3.477E-09

      iter #   3 total cpu time : 34586.0 secs   av.it.:  14.8
      thresh= 5.897E-06 alpha_mix =  0.700 |ddv_scf|^2 =  1.338E-11

      iter #   4 total cpu time : 34671.6 secs   av.it.:  15.0
      thresh= 3.658E-07 alpha_mix =  0.700 |ddv_scf|^2 =  1.160E-12

      iter #   5 total cpu time : 34758.5 secs   av.it.:  15.3
      thresh= 1.077E-07 alpha_mix =  0.700 |ddv_scf|^2 =  8.075E-14

      iter #   6 total cpu time : 34844.3 secs   av.it.:  15.0
      thresh= 2.842E-08 alpha_mix =  0.700 |ddv_scf|^2 =  1.587E-15
[...]

      iter #   4 total cpu time :******** secs   av.it.:  15.0
      thresh= 6.247E-07 alpha_mix =  0.700 |ddv_scf|^2 =  3.397E-12

      iter #   5 total cpu time :******** secs   av.it.:  15.0
      thresh= 1.843E-07 alpha_mix =  0.700 |ddv_scf|^2 =  1.667E-13

      iter #   6 total cpu time :******** secs   av.it.:  15.3
      thresh= 4.083E-08 alpha_mix =  0.700 |ddv_scf|^2 =  1.375E-14

      iter #   7 total cpu time :******** secs   av.it.:  15.8
      thresh= 1.173E-08 alpha_mix =  0.700 |ddv_scf|^2 =  1.290E-15

     End of self-consistent calculation

     Convergence has been achieved 


     Representation #  64 mode #  64

     Self-consistent Calculation

      iter #   1 total cpu time :******** secs   av.it.:   3.2
      thresh= 1.000E-02 alpha_mix =  0.700 |ddv_scf|^2 =  4.600E-09

      iter #   2 total cpu time :******** secs   av.it.:  16.0
      thresh= 6.783E-06 alpha_mix =  0.700 |ddv_scf|^2 =  3.333E-09

      iter #   3 total cpu time :******** secs   av.it.:  15.0
      thresh= 5.773E-06 alpha_mix =  0.700 |ddv_scf|^2 =  3.134E-11

      iter #   4 total cpu time :******** secs   av.it.:  15.1
      thresh= 5.598E-07 alpha_mix =  0.700 |ddv_scf|^2 =  4.334E-12

      iter #   5 total cpu time :******** secs   av.it.:  15.0
      thresh= 2.082E-07 alpha_mix =  0.700 |ddv_scf|^2 =  1.637E-13

      iter #   6 total cpu time :******** secs   av.it.:  15.4
      thresh= 4.046E-08 alpha_mix =  0.700 |ddv_scf|^2 =  1.695E-14

      iter #   7 total cpu time :******** secs   av.it.:  15.4
      thresh= 1.302E-08 alpha_mix =  0.700 |ddv_scf|^2 =  1.986E-15

     End of self-consistent calculation

     Convergence has been achieved 


     Representation #  65 mode #  65

     Self-consistent Calculation

      iter #   1 total cpu time :******** secs   av.it.:   3.0
      thresh= 1.000E-02 alpha_mix =  0.700 |ddv_scf|^2 =  4.351E-09

      iter #   2 total cpu time :******** secs   av.it.:  15.2
      thresh= 6.596E-06 alpha_mix =  0.700 |ddv_scf|^2 =  4.070E-09

      iter #   3 total cpu time :******** secs   av.it.:  14.0
      thresh= 6.379E-06 alpha_mix =  0.700 |ddv_scf|^2 =  2.901E-11

      iter #   4 total cpu time :******** secs   av.it.:  15.1
      thresh= 5.386E-07 alpha_mix =  0.700 |ddv_scf|^2 =  2.094E-12

      iter #   5 total cpu time :******** secs   av.it.:  15.5
      thresh= 1.447E-07 alpha_mix =  0.700 |ddv_scf|^2 =  1.330E-13

      iter #   6 total cpu time :******** secs   av.it.:  15.0
      thresh= 3.648E-08 alpha_mix =  0.700 |ddv_scf|^2 =  1.016E-14

      iter #   7 total cpu time :******** secs   av.it.:  15.5
      thresh= 1.008E-08 alpha_mix =  0.700 |ddv_scf|^2 =  7.945E-16

     End of self-consistent calculation

     Convergence has been achieved 


     Representation #  66 mode #  66

     Self-consistent Calculation

      iter #   1 total cpu time :******** secs   av.it.:   3.0
      thresh= 1.000E-02 alpha_mix =  0.700 |ddv_scf|^2 =  3.714E-09

      iter #   2 total cpu time :******** secs   av.it.:  16.0
      thresh= 6.094E-06 alpha_mix =  0.700 |ddv_scf|^2 =  2.452E-09

      iter #   3 total cpu time :******** secs   av.it.:  15.0
      thresh= 4.952E-06 alpha_mix =  0.700 |ddv_scf|^2 =  4.780E-11

      iter #   4 total cpu time :******** secs   av.it.:  15.0
      thresh= 6.914E-07 alpha_mix =  0.700 |ddv_scf|^2 =  2.939E-12

      iter #   5 total cpu time :******** secs   av.it.:  15.0
      thresh= 1.714E-07 alpha_mix =  0.700 |ddv_scf|^2 =  1.031E-13

      iter #   6 total cpu time :******** secs   av.it.:  15.8
      thresh= 3.211E-08 alpha_mix =  0.700 |ddv_scf|^2 =  1.159E-14

      iter #   7 total cpu time :******** secs   av.it.:  15.3
      thresh= 1.077E-08 alpha_mix =  0.700 |ddv_scf|^2 =  9.543E-16

     End of self-consistent calculation

     Convergence has been achieved 

     Number of q in the star =    4
     List of q in the star:
          1   0.333333333   0.328470871   0.490959614
          2   0.333333333  -0.328470871  -0.490959614
          3  -0.333333333   0.328470871  -0.490959614
          4  -0.333333333  -0.328470871   0.490959614
     In addition there is the -q list: 
          1  -0.333333333  -0.328470871  -0.490959614
          2  -0.333333333   0.328470871   0.490959614
          3   0.333333333  -0.328470871   0.490959614
          4   0.333333333   0.328470871  -0.490959614

     Diagonalizing the dynamical matrix

     q = (    0.333333333   0.328470871   0.490959614 ) 

 **************************************************************************
     freq (    1) =       1.257165 [THz] =      41.934526 [cm-1]
     freq (    2) =       1.309462 [THz] =      43.678965 [cm-1]
     freq (    3) =       1.592621 [THz] =      53.124130 [cm-1]
     freq (    4) =       1.841940 [THz] =      61.440503 [cm-1]
     freq (    5) =       2.868322 [THz] =      95.676917 [cm-1]
     freq (    6) =       2.959674 [THz] =      98.724085 [cm-1]
     freq (    7) =       4.694789 [THz] =     156.601311 [cm-1]
     freq (    8) =       4.782378 [THz] =     159.522951 [cm-1]
     freq (    9) =       5.305453 [THz] =     176.970859 [cm-1]
     freq (   10) =       5.665399 [THz] =     188.977368 [cm-1]
     freq (   11) =       6.016754 [THz] =     200.697306 [cm-1]
     freq (   12) =       6.113699 [THz] =     203.931052 [cm-1]
     freq (   13) =       6.380588 [THz] =     212.833491 [cm-1]
     freq (   14) =       6.676288 [THz] =     222.696989 [cm-1]
     freq (   15) =       7.111535 [THz] =     237.215260 [cm-1]
     freq (   16) =       7.216491 [THz] =     240.716245 [cm-1]
     freq (   17) =       8.140198 [THz] =     271.527791 [cm-1]
     freq (   18) =       8.274685 [THz] =     276.013767 [cm-1]
     freq (   19) =       8.426138 [THz] =     281.065715 [cm-1]
     freq (   20) =       8.443737 [THz] =     281.652743 [cm-1]
     freq (   21) =       8.951512 [THz] =     298.590296 [cm-1]
     freq (   22) =       9.046363 [THz] =     301.754182 [cm-1]
     freq (   23) =       9.165746 [THz] =     305.736366 [cm-1]
     freq (   24) =       9.463223 [THz] =     315.659150 [cm-1]
     freq (   25) =       9.897405 [THz] =     330.141884 [cm-1]
     freq (   26) =      10.069239 [THz] =     335.873676 [cm-1]
     freq (   27) =      12.663653 [THz] =     422.413995 [cm-1]
     freq (   28) =      12.718706 [THz] =     424.250382 [cm-1]
     freq (   29) =      12.794014 [THz] =     426.762362 [cm-1]
     freq (   30) =      12.882784 [THz] =     429.723406 [cm-1]
     freq (   31) =      30.739213 [THz] =    1025.349773 [cm-1]
     freq (   32) =      30.747131 [THz] =    1025.613893 [cm-1]
     freq (   33) =      30.909066 [THz] =    1031.015480 [cm-1]
     freq (   34) =      30.931052 [THz] =    1031.748827 [cm-1]
     freq (   35) =      31.806080 [THz] =    1060.936616 [cm-1]
     freq (   36) =      31.827281 [THz] =    1061.643821 [cm-1]
     freq (   37) =      31.868542 [THz] =    1063.020121 [cm-1]
     freq (   38) =      31.919351 [THz] =    1064.714946 [cm-1]
     freq (   39) =      32.244528 [THz] =    1075.561676 [cm-1]
     freq (   40) =      32.270684 [THz] =    1076.434165 [cm-1]
     freq (   41) =      32.345097 [THz] =    1078.916305 [cm-1]
     freq (   42) =      32.407321 [THz] =    1080.991885 [cm-1]
     freq (   43) =      35.841345 [THz] =    1195.538595 [cm-1]
     freq (   44) =      35.875214 [THz] =    1196.668328 [cm-1]
     freq (   45) =      35.984148 [THz] =    1200.301980 [cm-1]
     freq (   46) =      36.016549 [THz] =    1201.382774 [cm-1]
     freq (   47) =      36.106973 [THz] =    1204.398967 [cm-1]
     freq (   48) =      36.108832 [THz] =    1204.460976 [cm-1]
     freq (   49) =      36.155967 [THz] =    1206.033239 [cm-1]
     freq (   50) =      36.172447 [THz] =    1206.582970 [cm-1]
     freq (   51) =      68.229391 [THz] =    2275.887495 [cm-1]
     freq (   52) =      68.246312 [THz] =    2276.451927 [cm-1]
     freq (   53) =      68.271434 [THz] =    2277.289925 [cm-1]
     freq (   54) =      68.309169 [THz] =    2278.548617 [cm-1]
     freq (   55) =      70.078002 [THz] =    2337.550533 [cm-1]
     freq (   56) =      70.088259 [THz] =    2337.892676 [cm-1]
     freq (   57) =      70.230423 [THz] =    2342.634762 [cm-1]
     freq (   58) =      70.232835 [THz] =    2342.715222 [cm-1]
     freq (   59) =      70.751571 [THz] =    2360.018361 [cm-1]
     freq (   60) =      70.760556 [THz] =    2360.318070 [cm-1]
     freq (   61) =      70.849996 [THz] =    2363.301488 [cm-1]
     freq (   62) =      70.880637 [THz] =    2364.323560 [cm-1]
     freq (   63) =      71.378926 [THz] =    2380.944703 [cm-1]
     freq (   64) =      71.394490 [THz] =    2381.463842 [cm-1]
     freq (   65) =      71.466743 [THz] =    2383.873959 [cm-1]
     freq (   66) =      71.509029 [THz] =    2385.284472 [cm-1]
 **************************************************************************

     Mode symmetry, C_1 (1)     point group:

     freq (   1-   1) =         41.9  [cm-1]   --> A                  
     freq (   2-   2) =         43.7  [cm-1]   --> A                  
     freq (   3-   3) =         53.1  [cm-1]   --> A                  
     freq (   4-   4) =         61.4  [cm-1]   --> A                  
     freq (   5-   5) =         95.7  [cm-1]   --> A                  
     freq (   6-   6) =         98.7  [cm-1]   --> A                  
     freq (   7-   7) =        156.6  [cm-1]   --> A                  
     freq (   8-   8) =        159.5  [cm-1]   --> A                  
     freq (   9-   9) =        177.0  [cm-1]   --> A                  
     freq (  10-  10) =        189.0  [cm-1]   --> A                  
     freq (  11-  11) =        200.7  [cm-1]   --> A                  
     freq (  12-  12) =        203.9  [cm-1]   --> A                  
     freq (  13-  13) =        212.8  [cm-1]   --> A                  
     freq (  14-  14) =        222.7  [cm-1]   --> A                  
     freq (  15-  15) =        237.2  [cm-1]   --> A                  
     freq (  16-  16) =        240.7  [cm-1]   --> A                  
     freq (  17-  17) =        271.5  [cm-1]   --> A                  
     freq (  18-  18) =        276.0  [cm-1]   --> A                  
     freq (  19-  19) =        281.1  [cm-1]   --> A                  
     freq (  20-  20) =        281.7  [cm-1]   --> A                  
     freq (  21-  21) =        298.6  [cm-1]   --> A                  
     freq (  22-  22) =        301.8  [cm-1]   --> A                  
     freq (  23-  23) =        305.7  [cm-1]   --> A                  
     freq (  24-  24) =        315.7  [cm-1]   --> A                  
     freq (  25-  25) =        330.1  [cm-1]   --> A                  
     freq (  26-  26) =        335.9  [cm-1]   --> A                  
     freq (  27-  27) =        422.4  [cm-1]   --> A                  
     freq (  28-  28) =        424.3  [cm-1]   --> A                  
     freq (  29-  29) =        426.8  [cm-1]   --> A                  
     freq (  30-  30) =        429.7  [cm-1]   --> A                  
     freq (  31-  31) =       1025.3  [cm-1]   --> A                  
     freq (  32-  32) =       1025.6  [cm-1]   --> A                  
     freq (  33-  33) =       1031.0  [cm-1]   --> A                  
     freq (  34-  34) =       1031.7  [cm-1]   --> A                  
     freq (  35-  35) =       1060.9  [cm-1]   --> A                  
     freq (  36-  36) =       1061.6  [cm-1]   --> A                  
     freq (  37-  37) =       1063.0  [cm-1]   --> A                  
     freq (  38-  38) =       1064.7  [cm-1]   --> A                  
     freq (  39-  39) =       1075.6  [cm-1]   --> A                  
     freq (  40-  40) =       1076.4  [cm-1]   --> A                  
     freq (  41-  41) =       1078.9  [cm-1]   --> A                  
     freq (  42-  42) =       1081.0  [cm-1]   --> A                  
     freq (  43-  43) =       1195.5  [cm-1]   --> A                  
     freq (  44-  44) =       1196.7  [cm-1]   --> A                  
     freq (  45-  45) =       1200.3  [cm-1]   --> A                  
     freq (  46-  46) =       1201.4  [cm-1]   --> A                  
     freq (  47-  47) =       1204.4  [cm-1]   --> A                  
     freq (  48-  48) =       1204.5  [cm-1]   --> A                  
     freq (  49-  49) =       1206.0  [cm-1]   --> A                  
     freq (  50-  50) =       1206.6  [cm-1]   --> A                  
     freq (  51-  51) =       2275.9  [cm-1]   --> A                  
     freq (  52-  52) =       2276.5  [cm-1]   --> A                  
     freq (  53-  53) =       2277.3  [cm-1]   --> A                  
     freq (  54-  54) =       2278.5  [cm-1]   --> A                  
     freq (  55-  55) =       2337.6  [cm-1]   --> A                  
     freq (  56-  56) =       2337.9  [cm-1]   --> A                  
     freq (  57-  57) =       2342.6  [cm-1]   --> A                  
     freq (  58-  58) =       2342.7  [cm-1]   --> A                  
     freq (  59-  59) =       2360.0  [cm-1]   --> A                  
     freq (  60-  60) =       2360.3  [cm-1]   --> A                  
     freq (  61-  61) =       2363.3  [cm-1]   --> A                  
     freq (  62-  62) =       2364.3  [cm-1]   --> A                  
     freq (  63-  63) =       2380.9  [cm-1]   --> A                  
     freq (  64-  64) =       2381.5  [cm-1]   --> A                  
     freq (  65-  65) =       2383.9  [cm-1]   --> A                  
     freq (  66-  66) =       2385.3  [cm-1]   --> A                  

     init_run     :      8.71s CPU      8.98s WALL (       7 calls)
     electrons    :   5319.79s CPU   5356.19s WALL (       7 calls)

     Called by init_run:
     wfcinit      :      0.00s CPU      0.00s WALL (       7 calls)
     potinit      :      1.04s CPU      1.14s WALL (       7 calls)
     hinit0       :      0.82s CPU      0.86s WALL (       7 calls)

     Called by electrons:
     c_bands      :   5319.79s CPU   5356.18s WALL (       7 calls)
     v_of_rho     :      0.95s CPU      1.02s WALL (       8 calls)
     newd         :      1.48s CPU      1.53s WALL (       8 calls)

     Called by c_bands:
     init_us_2    :   2389.25s CPU   2598.39s WALL (  441622 calls)
     cegterg      :   4872.09s CPU   4902.83s WALL (    2773 calls)

     Called by *egterg:
     cdiaghg      :    142.98s CPU    143.70s WALL (   31902 calls)
     h_psi        : 555439.52s CPU 559920.75s WALL ( 5595293 calls)
     s_psi        : 218340.47s CPU 219273.29s WALL (11495312 calls)
     g_psi        :     12.81s CPU     12.87s WALL (   30512 calls)

     Called by h_psi:
     h_psi:calbec :  93378.46s CPU  93854.13s WALL ( 5595293 calls)
     vloc_psi     : 353559.24s CPU 357097.91s WALL ( 5595293 calls)
     add_vuspsi   : 105837.57s CPU 106298.46s WALL ( 5595293 calls)

     General routines
     calbec       : 205398.74s CPU 206418.50s WALL (12168509 calls)
     fft          :    908.98s CPU    972.41s WALL (  101567 calls)
     ffts         :   1459.77s CPU   1494.80s WALL (   92652 calls)
     fftw         : 357732.78s CPU 361588.28s WALL (******** calls)
     interpolate  :     68.18s CPU     78.28s WALL (    7908 calls)
     davcio       :    835.99s CPU   1276.69s WALL ( 1893942 calls)

     Parallel routines

     PHONON       :  11d22h 7m CPU  12d 0h36m WALL

     INITIALIZATION: 
     phq_setup    :      2.78s CPU      3.41s WALL (       8 calls)
     phq_init     :   4629.63s CPU   4669.07s WALL (       8 calls)

     phq_init     :   4629.63s CPU   4669.07s WALL (       8 calls)
     set_drhoc    :      0.11s CPU      0.11s WALL (      24 calls)
     init_vloc    :      0.14s CPU      0.16s WALL (       8 calls)
     init_us_1    :      0.18s CPU      0.22s WALL (       8 calls)
     init_us_2    :   2389.25s CPU   2598.39s WALL (  441622 calls)
     newd         :      1.48s CPU      1.53s WALL (       8 calls)
     dvanqq       :    176.41s CPU    178.51s WALL (       8 calls)
     drho         :   4180.00s CPU   4215.80s WALL (       8 calls)
     drhous       :   3831.78s CPU   3861.76s WALL (       8 calls)
     nldyntot     :     83.79s CPU     83.88s WALL (       8 calls)

     DYNAMICAL MATRIX:
     dynmat0      :    210.94s CPU    211.74s WALL (       8 calls)
     dynmat_us    :    163.00s CPU    163.67s WALL (       8 calls)
     addusdynmat  :      0.02s CPU      0.05s WALL (       8 calls)
     d2ionq       :     45.47s CPU     45.51s WALL (       8 calls)
     dynmatcc     :      2.32s CPU      2.39s WALL (       8 calls)
     phqscf       : *********s CPU *********s WALL (       8 calls)
     dynmatrix    :      0.77s CPU      0.90s WALL (       8 calls)

     phqscf       : *********s CPU *********s WALL (       8 calls)
     solve_linter : *********s CPU *********s WALL (     527 calls)
     sth_kernel   : 982458.43s CPU 990280.98s WALL (    3661 calls)
     h_prec       :    608.02s CPU    612.90s WALL (  338552 calls)
     apply_dpot_b :  21576.72s CPU  22020.44s WALL (  291506 calls)
     ortho        :  15963.41s CPU  16076.70s WALL (  339320 calls)
     cgsolve      : 904618.07s CPU 910780.79s WALL (  339320 calls)
     incdrhoscf   :  36333.65s CPU  36911.28s WALL (  339320 calls)
                                        0.00s GPU  (  339320 calls)
     addusddens   :   1358.69s CPU   1376.20s WALL (    4181 calls)
     dv_of_drho   :    361.06s CPU    393.36s WALL (    3684 calls)
     mix_pot      :     40.51s CPU    105.67s WALL (    3661 calls)
     drhodv       :   4672.85s CPU   4719.51s WALL (     527 calls)
     psymdvscf    :   1682.09s CPU   1734.21s WALL (    1730 calls)
     newdq        :   1623.65s CPU   1634.01s WALL (    3661 calls)
     adddvscf     :   1054.35s CPU   1071.75s WALL (  291506 calls)
     drhodvus     :     23.04s CPU     45.36s WALL (     527 calls)

     dvqpsi_us    :  23595.02s CPU  23697.13s WALL (   49434 calls)
                                        0.00s GPU  (   49434 calls)
     dvqpsi_us_on :  18557.86s CPU  18595.31s WALL (   49434 calls)

     add_vuspsi   : 105837.57s CPU 106298.46s WALL ( 5595293 calls)
     addusdbec    :   7532.64s CPU   7571.27s WALL (  386972 calls)

     drhodvus     :     23.04s CPU     45.36s WALL (     527 calls)

      General routines
     calbec       : 205398.74s CPU 206418.50s WALL (12168509 calls)
     fft          :    908.98s CPU    972.41s WALL (  101567 calls)
     ffts         :   1459.77s CPU   1494.80s WALL (   92652 calls)
     fftw         : 357732.78s CPU 361588.28s WALL (******** calls)
     davcio       :    835.99s CPU   1276.69s WALL ( 1893942 calls)
     write_rec    :     69.43s CPU    647.16s WALL (    4188 calls)

      Additional routines
     ch_psi       : 893695.34s CPU 899713.07s WALL ( 5560618 calls)
     last         : 232243.05s CPU 233350.08s WALL ( 5560618 calls)
     Hesh         :   1499.27s CPU   1515.14s WALL ( 5560618 calls)
     ch_psi_all_k : 230657.64s CPU 231758.15s WALL ( 5560618 calls)
                                        0.00s GPU  ( 5560618 calls)
     ch_psi_calbe :  92834.97s CPU  93202.05s WALL ( 5560618 calls)
                                        0.00s GPU  ( 5560618 calls)
     h_psi_bgrp   : 555486.50s CPU 559959.21s WALL ( 5595293 calls)
     h_psi        : 555439.52s CPU 559920.75s WALL ( 5595293 calls)
     h_psi:pot    : 552907.16s CPU 557347.95s WALL ( 5595293 calls)
     h_psi:calbec :  93378.46s CPU  93854.13s WALL ( 5595293 calls)
     s_psi_bgrp   : 220854.30s CPU 221759.35s WALL (11495312 calls)
     s_psi        : 218340.47s CPU 219273.29s WALL (11495312 calls)


     PHONON       :  11d22h 7m CPU  12d 0h36m WALL


   This run was terminated on:  12:57:32  24Jul2024            

=------------------------------------------------------------------------------=
   JOB DONE.
=------------------------------------------------------------------------------=
