
     Program Q2R v.7.3.1 starts on 24Jul2024 at 12:57:33 

     This program is part of the open-source Quantum ESPRESSO suite
     for quantum simulation of materials; please cite
         "P. Giannozzi et al., J. Phys.:Condens. Matter 21 395502 (2009);
         "P. Giannozzi et al., J. Phys.:Condens. Matter 29 465901 (2017);
         "P. Giannozzi et al., J. Chem. Phys. 152 154105 (2020);
          URL http://www.quantum-espresso.org", 
     in publications or presentations arising from this work. More details at
     http://www.quantum-espresso.org/quote

     Parallel version (MPI), running on    24 processors

     MPI processes distributed on     1 nodes
     R & G space division:  proc/nbgrp/npool/nimage =      24
     70944 MiB available memory on the printing compute node when the environment starts


  reading grid info from file dyn0    

  reading force constants from file dyn1
 macroscopic fields = T
   3.03300   0.00000   0.00000
   0.00000   3.08689   0.00000
   0.00000   0.00000   3.24250
  na=            1
   2.46374  -0.05689   0.00000
   0.27963   2.48500  -0.00000
  -0.00000   0.00000   2.96429
  na=            2
   2.46374   0.05689   0.00000
  -0.27963   2.48500  -0.00000
   0.00000   0.00000   2.96429
  na=            3
  -0.14140   0.02765  -0.00001
   0.17327  -0.02613   0.00002
   0.00003   0.00000  -0.19703
  na=            4
  -0.14140   0.02765   0.00001
   0.17327  -0.02613  -0.00002
  -0.00003  -0.00000  -0.19703
  na=            5
  -0.14140  -0.02765   0.00001
  -0.17327  -0.02613   0.00002
  -0.00003   0.00000  -0.19703
  na=            6
  -0.14140  -0.02765  -0.00001
  -0.17327  -0.02613  -0.00002
   0.00003  -0.00000  -0.19703
  na=            7
  -0.43683   0.13943  -0.00003
   0.14465  -0.24387   0.00004
  -0.00003   0.00004  -0.25004
  na=            8
  -0.43683   0.13943   0.00003
   0.14465  -0.24387  -0.00004
   0.00003  -0.00004  -0.25004
  na=            9
  -0.43683  -0.13943   0.00003
  -0.14465  -0.24387   0.00004
   0.00003   0.00004  -0.25004
  na=           10
  -0.43683  -0.13943  -0.00003
  -0.14465  -0.24387  -0.00004
  -0.00003  -0.00004  -0.25004
  na=           11
  -0.24939  -0.03136  -0.00000
  -0.10985  -0.43517  -0.00001
  -0.00001  -0.00001  -0.24590
  na=           12
  -0.24939  -0.03136   0.00000
  -0.10985  -0.43517   0.00001
   0.00001   0.00001  -0.24590
  na=           13
  -0.24939   0.03136   0.00000
   0.10985  -0.43517  -0.00001
   0.00001  -0.00001  -0.24590
  na=           14
  -0.24939   0.03136  -0.00000
   0.10985  -0.43517   0.00001
  -0.00001   0.00001  -0.24590
  na=           15
  -0.20227   0.15078   0.06573
   0.10363  -0.26800  -0.09834
   0.02695  -0.11376  -0.39436
  na=           16
  -0.20227   0.15078  -0.06573
   0.10363  -0.26800   0.09834
  -0.02695   0.11376  -0.39436
  na=           17
  -0.20227  -0.15078  -0.06573
  -0.10363  -0.26800  -0.09834
  -0.02695  -0.11376  -0.39436
  na=           18
  -0.20227  -0.15078   0.06573
  -0.10363  -0.26800   0.09834
   0.02695   0.11376  -0.39436
  na=           19
  -0.20223   0.15074   0.06568
   0.10360  -0.26798  -0.09833
   0.02692  -0.11375  -0.39439
  na=           20
  -0.20223   0.15074  -0.06568
   0.10360  -0.26798   0.09833
  -0.02692   0.11375  -0.39439
  na=           21
  -0.20223  -0.15074  -0.06568
  -0.10360  -0.26798  -0.09833
  -0.02692  -0.11375  -0.39439
  na=           22
  -0.20223  -0.15074   0.06568
  -0.10360  -0.26798   0.09833
   0.02692   0.11375  -0.39439
  Norm of the difference between old and new effective charges:    0.00121006979767288329
  nqs=            1
 q=   0.00000000  0.00000000  0.00000000
  reading force constants from file dyn2
  nqs=            2
 q=   0.00000000  0.00000000  0.49095961
 q=   0.00000000  0.00000000 -0.49095961
  reading force constants from file dyn3
  nqs=            2
 q=   0.00000000  0.32847087  0.00000000
 q=   0.00000000 -0.32847087  0.00000000
  reading force constants from file dyn4
  nqs=            4
 q=   0.00000000  0.32847087  0.49095961
 q=   0.00000000  0.32847087 -0.49095961
 q=   0.00000000 -0.32847087 -0.49095961
 q=   0.00000000 -0.32847087  0.49095961
  reading force constants from file dyn5
  nqs=            2
 q=   0.33333333  0.00000000  0.00000000
 q=  -0.33333333  0.00000000  0.00000000
  reading force constants from file dyn6
  nqs=            4
 q=   0.33333333  0.00000000  0.49095961
 q=   0.33333333  0.00000000 -0.49095961
 q=  -0.33333333  0.00000000 -0.49095961
 q=  -0.33333333  0.00000000  0.49095961
  reading force constants from file dyn7
  nqs=            4
 q=   0.33333333  0.32847087  0.00000000
 q=   0.33333333 -0.32847087  0.00000000
 q=  -0.33333333  0.32847087  0.00000000
 q=  -0.33333333 -0.32847087  0.00000000
  reading force constants from file dyn8
  nqs=            8
 q=   0.33333333  0.32847087  0.49095961
 q=  -0.33333333 -0.32847087 -0.49095961
 q=   0.33333333 -0.32847087 -0.49095961
 q=  -0.33333333  0.32847087  0.49095961
 q=  -0.33333333  0.32847087 -0.49095961
 q=   0.33333333 -0.32847087  0.49095961
 q=  -0.33333333 -0.32847087  0.49095961
 q=   0.33333333  0.32847087 -0.49095961

      q-space grid ok, #points =   27

      fft-check success (sum of imaginary terms < 10^-12)

     Q2R          :      3.09s CPU      3.14s WALL


   This run was terminated on:  12:57:36  24Jul2024            

=------------------------------------------------------------------------------=
   JOB DONE.
=------------------------------------------------------------------------------=
