
     Program PWSCF v.7.3.1 starts on  9Jul2024 at  8:32:36 

     This program is part of the open-source Quantum ESPRESSO suite
     for quantum simulation of materials; please cite
         "P. Giannozzi et al., J. Phys.:Condens. Matter 21 395502 (2009);
         "P. Giannozzi et al., J. Phys.:Condens. Matter 29 465901 (2017);
         "P. Giannozzi et al., J. Chem. Phys. 152 154105 (2020);
          URL http://www.quantum-espresso.org", 
     in publications or presentations arising from this work. More details at
     http://www.quantum-espresso.org/quote

     Parallel version (MPI), running on    24 processors

     MPI processes distributed on     1 nodes
     127663 MiB available memory on the printing compute node when the environment starts

     Waiting for input...
     Reading input from standard input

     Current dimensions of program PWSCF are:
     Max number of different atomic species (ntypx) = 10
     Max number of k-points (npk) =  40000
     Max angular momentum in pseudopotentials (lmaxx) =  4

     R & G space division:  proc/nbgrp/npool/nimage =      24
     Subspace diagonalization in iterative solution of the eigenvalue problem:
     a serial algorithm will be used


     Parallelization info
     --------------------
     sticks:   dense  smooth     PW     G-vecs:    dense   smooth      PW
     Min         478     239     65                26304     9297    1335
     Max         479     240     66                26309     9300    1338
     Sum       11489    5743   1569               631343   223149   32071

     Using Slab Decomposition


     Title: 
     InitGeomOpt                                                                


     bravais-lattice index     =            8
     lattice parameter (alat)  =      13.1993  a.u.
     unit-cell volume          =    1652.2482 (a.u.)^3
     number of atoms/cell      =           22
     number of atomic types    =            3
     number of electrons       =        48.00
     number of Kohn-Sham states=           24
     kinetic-energy cutoff     =     100.0000  Ry
     charge density cutoff     =     800.0000  Ry
     scf convergence threshold =      1.0E-10
     mixing beta               =       0.7000
     number of iterations used =            8  plain     mixing
     energy convergence thresh.=      1.0E-05
     force convergence thresh. =      1.0E-05
     press convergence thresh. =      1.0E-01
     Exchange-correlation= PBESOL
                           (   1   4  10   8   0   0   0)
     nstep                     =           50


     celldm(1)=  13.199283  celldm(2)=   1.034883  celldm(3)=   0.694277
     celldm(4)=   0.000000  celldm(5)=   0.000000  celldm(6)=   0.000000

     crystal axes: (cart. coord. in units of alat)
               a(1) = (   1.000000   0.000000   0.000000 )  
               a(2) = (   0.000000   1.034883   0.000000 )  
               a(3) = (   0.000000   0.000000   0.694277 )  

     reciprocal axes: (cart. coord. in units 2 pi/alat)
               b(1) = (  1.000000  0.000000  0.000000 )  
               b(2) = (  0.000000  0.966293  0.000000 )  
               b(3) = (  0.000000  0.000000  1.440347 )  


     PseudoPot. # 1 for B  read from file:
     /home/mehlhorn/pseudos/b_pbesol_v1.4.uspp.F.UPF
     MD5 check sum: 369b69bef2c3aeed4453bd8b804fd6a8
     Pseudo is Ultrasoft + core correction, Zval =  3.0
     Generated by new atomic code, or converted to UPF format
     Using radial grid of  781 points,  4 beta functions with: 
                l(1) =   0
                l(2) =   0
                l(3) =   1
                l(4) =   1
     Q(r) pseudized with  8 coefficients,  rinner =    1.100   1.100   1.100


     PseudoPot. # 2 for Ba read from file:
     /home/mehlhorn/pseudos/Ba.nc.z_10.oncvpsp4.dojo.v4-sp.upf
     MD5 check sum: c10ed334bb677c0554edec7181ce9143
     Pseudo is Norm-conserving + core correction, Zval = 10.0
     Generated using ONCVPSP code by D. R. Hamann
     Using radial grid of 1938 points,  8 beta functions with: 
                l(1) =   0
                l(2) =   0
                l(3) =   1
                l(4) =   1
                l(5) =   2
                l(6) =   2
                l(7) =   3
                l(8) =   3

     PseudoPot. # 3 for H  read from file:
     /home/mehlhorn/pseudos/H_ONCV_PBEsol-1.0.upf
     MD5 check sum: 398ef8f67c0a7342c05c87c5e19ea467
     Pseudo is Norm-conserving, Zval =  1.0
     Generated using ONCVPSP code by D. R. Hamann
     Using radial grid of 1180 points,  2 beta functions with: 
                l(1) =   0
                l(2) =   0

     atomic species   valence    mass     pseudopotential
     B                 3.00    10.81100     B ( 1.00)
     Ba               10.00   137.32700     Ba( 1.00)
     H                 1.00     1.00794     H ( 1.00)

      4 Sym. Ops. (no inversion) found ( 2 have fractional translation)



   Cartesian axes

     site n.     atom                  positions (alat units)
         1        Ba     tau(   1) = (   0.5000000   0.5174415   0.3471942  )
         2        Ba     tau(   2) = (   0.0000000   0.0000000   0.6942217  )
         3        B      tau(   3) = (   0.6308000   0.2628603   0.0000139  )
         4        B      tau(   4) = (   0.3692000   0.7720228   0.0000139  )
         5        B      tau(   5) = (   0.1308000   0.2545812   0.3471247  )
         6        B      tau(   6) = (   0.8692000   0.7803018   0.3471247  )
         7        H      tau(   7) = (   0.4582000   0.2939068   0.0001805  )
         8        H      tau(   8) = (   0.5418000   0.7409763   0.0001805  )
         9        H      tau(   9) = (   0.9582000   0.2235347   0.3469581  )
        10        H      tau(  10) = (   0.0418000   0.8113483   0.3469581  )
        11        H      tau(  11) = (   0.7204000   0.4141602   0.0000000  )
        12        H      tau(  12) = (   0.2796000   0.6207229   0.0000000  )
        13        H      tau(  13) = (   0.2204000   0.1032813   0.3471386  )
        14        H      tau(  14) = (   0.7796000   0.9316018   0.3471386  )
        15        H      tau(  15) = (   0.6689000   0.1713766   0.5494094  )
        16        H      tau(  16) = (   0.3311000   0.8635064   0.5494094  )
        17        H      tau(  17) = (   0.1689000   0.3460649   0.4920065  )
        18        H      tau(  18) = (   0.8311000   0.6888182   0.4920065  )
        19        H      tau(  19) = (   0.3311000   0.8635064   0.1448679  )
        20        H      tau(  20) = (   0.6689000   0.1713766   0.1448679  )
        21        H      tau(  21) = (   0.8311000   0.6888182   0.2022707  )
        22        H      tau(  22) = (   0.1689000   0.3460649   0.2022707  )

     number of k points=    27
                       cart. coord. in units 2pi/alat
        k(    1) = (   0.0000000   0.0000000   0.0000000), wk =   0.0312500
        k(    2) = (   0.0000000   0.0000000   0.3600867), wk =   0.0625000
        k(    3) = (   0.0000000   0.0000000  -0.7201734), wk =   0.0312500
        k(    4) = (   0.0000000   0.2415732   0.0000000), wk =   0.0625000
        k(    5) = (   0.0000000   0.2415732   0.3600867), wk =   0.1250000
        k(    6) = (   0.0000000   0.2415732  -0.7201734), wk =   0.0625000
        k(    7) = (   0.0000000  -0.4831464   0.0000000), wk =   0.0312500
        k(    8) = (   0.0000000  -0.4831464   0.3600867), wk =   0.0625000
        k(    9) = (   0.0000000  -0.4831464  -0.7201734), wk =   0.0312500
        k(   10) = (   0.2500000   0.0000000   0.0000000), wk =   0.0625000
        k(   11) = (   0.2500000   0.0000000   0.3600867), wk =   0.1250000
        k(   12) = (   0.2500000   0.0000000  -0.7201734), wk =   0.0625000
        k(   13) = (   0.2500000   0.2415732   0.0000000), wk =   0.1250000
        k(   14) = (   0.2500000   0.2415732   0.3600867), wk =   0.2500000
        k(   15) = (   0.2500000   0.2415732  -0.7201734), wk =   0.1250000
        k(   16) = (   0.2500000  -0.4831464   0.0000000), wk =   0.0625000
        k(   17) = (   0.2500000  -0.4831464   0.3600867), wk =   0.1250000
        k(   18) = (   0.2500000  -0.4831464  -0.7201734), wk =   0.0625000
        k(   19) = (  -0.5000000   0.0000000   0.0000000), wk =   0.0312500
        k(   20) = (  -0.5000000   0.0000000   0.3600867), wk =   0.0625000
        k(   21) = (  -0.5000000   0.0000000  -0.7201734), wk =   0.0312500
        k(   22) = (  -0.5000000   0.2415732   0.0000000), wk =   0.0625000
        k(   23) = (  -0.5000000   0.2415732   0.3600867), wk =   0.1250000
        k(   24) = (  -0.5000000   0.2415732  -0.7201734), wk =   0.0625000
        k(   25) = (  -0.5000000  -0.4831464   0.0000000), wk =   0.0312500
        k(   26) = (  -0.5000000  -0.4831464   0.3600867), wk =   0.0625000
        k(   27) = (  -0.5000000  -0.4831464  -0.7201734), wk =   0.0312500

     Dense  grid:   631343 G-vectors     FFT dimensions: ( 120, 128,  90)

     Smooth grid:   223149 G-vectors     FFT dimensions: (  90,  90,  60)

     Estimated max dynamical RAM per process >      99.61 MB

     Estimated total dynamical RAM >       2.33 GB

     Initial potential from superposition of free atoms

     starting charge      47.9682, renormalised to      48.0000
     Starting wfcs are   42 randomized atomic wfcs

     total cpu time spent up to now is       12.7 secs

     Self-consistent Calculation

     iteration #  1     ecut=   100.00 Ry     beta= 0.70
     Davidson diagonalization with overlap
     ethr =  1.00E-02,  avg # of iterations =  2.0

     total cpu time spent up to now is       27.9 secs

     total energy              =    -155.85587054 Ry
     estimated scf accuracy    <       2.28697837 Ry

     iteration #  2     ecut=   100.00 Ry     beta= 0.70
     Davidson diagonalization with overlap
     ethr =  4.76E-03,  avg # of iterations =  2.0

     total cpu time spent up to now is       42.5 secs

     total energy              =    -156.38197961 Ry
     estimated scf accuracy    <       0.41630197 Ry

     iteration #  3     ecut=   100.00 Ry     beta= 0.70
     Davidson diagonalization with overlap
     ethr =  8.67E-04,  avg # of iterations =  2.0

     total cpu time spent up to now is       57.1 secs

     total energy              =    -156.45216699 Ry
     estimated scf accuracy    <       0.00519777 Ry

     iteration #  4     ecut=   100.00 Ry     beta= 0.70
     Davidson diagonalization with overlap
     ethr =  1.08E-05,  avg # of iterations =  5.2

     total cpu time spent up to now is       78.3 secs

     total energy              =    -156.45503907 Ry
     estimated scf accuracy    <       0.00193588 Ry

     iteration #  5     ecut=   100.00 Ry     beta= 0.70
     Davidson diagonalization with overlap
     ethr =  4.03E-06,  avg # of iterations =  3.1

     total cpu time spent up to now is       93.4 secs

     total energy              =    -156.45569886 Ry
     estimated scf accuracy    <       0.00017464 Ry

     iteration #  6     ecut=   100.00 Ry     beta= 0.70
     Davidson diagonalization with overlap
     ethr =  3.64E-07,  avg # of iterations =  4.4

     total cpu time spent up to now is      110.5 secs

     total energy              =    -156.45576739 Ry
     estimated scf accuracy    <       0.00000183 Ry

     iteration #  7     ecut=   100.00 Ry     beta= 0.70
     Davidson diagonalization with overlap
     ethr =  3.82E-09,  avg # of iterations =  8.3

     total cpu time spent up to now is      143.0 secs

     total energy              =    -156.45577712 Ry
     estimated scf accuracy    <       0.00000122 Ry

     iteration #  8     ecut=   100.00 Ry     beta= 0.70
     Davidson diagonalization with overlap
     ethr =  2.54E-09,  avg # of iterations =  2.1

     total cpu time spent up to now is      157.6 secs

     total energy              =    -156.45577739 Ry
     estimated scf accuracy    <       0.00000001 Ry

     iteration #  9     ecut=   100.00 Ry     beta= 0.70
     Davidson diagonalization with overlap
     ethr =  2.62E-11,  avg # of iterations =  6.5

     total cpu time spent up to now is      182.9 secs

     total energy              =    -156.45577742 Ry
     estimated scf accuracy    <          1.4E-09 Ry

     iteration # 10     ecut=   100.00 Ry     beta= 0.70
     Davidson diagonalization with overlap
     ethr =  2.82E-12,  avg # of iterations =  4.3

     total cpu time spent up to now is      201.1 secs

     total energy              =    -156.45577742 Ry
     estimated scf accuracy    <          3.8E-10 Ry

     iteration # 11     ecut=   100.00 Ry     beta= 0.70
     Davidson diagonalization with overlap
     ethr =  7.97E-13,  avg # of iterations =  3.6

     total cpu time spent up to now is      216.5 secs

     End of self-consistent calculation

          k = 0.0000 0.0000 0.0000 ( 27937 PWs)   bands (ev):

   -25.2015 -25.1971 -10.5615 -10.5256 -10.3876 -10.3773 -10.3299 -10.2892
    -6.6441  -5.8691  -5.5170  -5.3884  -2.2787  -1.4468  -1.4062  -1.0900
    -1.0263  -0.9861  -0.8945  -0.8711  -0.5664  -0.2163  -0.2156  -0.1528

          k = 0.0000 0.0000 0.3601 ( 27905 PWs)   bands (ev):

   -25.1976 -25.1945 -10.5061 -10.4831 -10.4759 -10.4546 -10.3816 -10.3775
    -6.2941  -5.7166  -5.6141  -5.5265  -1.9628  -1.7924  -1.5118  -1.2313
    -1.1882  -1.1364  -0.7638  -0.6205  -0.4705  -0.3728  -0.2977  -0.2922

          k = 0.0000 0.0000-0.7202 ( 27838 PWs)   bands (ev):

   -25.1928 -25.1927 -10.6065 -10.6064 -10.4264 -10.4264 -10.3943 -10.3943
    -5.7596  -5.7591  -5.6901  -5.6898  -1.8388  -1.8367  -1.7026  -1.7015
    -0.9004  -0.8978  -0.7897  -0.7891  -0.4427  -0.4426  -0.3560  -0.3515

          k = 0.0000 0.2416 0.0000 ( 27927 PWs)   bands (ev):

   -25.2008 -25.1978 -10.5402 -10.5051 -10.4169 -10.3994 -10.3239 -10.2952
    -6.5074  -5.8514  -5.6684  -5.4573  -2.0469  -1.5941  -1.4528  -1.0321
    -0.9745  -0.8862  -0.7864  -0.7698  -0.5894  -0.5102  -0.2370  -0.2354

          k = 0.0000 0.2416 0.3601 ( 27878 PWs)   bands (ev):

   -25.1971 -25.1949 -10.5192 -10.4874 -10.4572 -10.4453 -10.3900 -10.3816
    -6.2093  -5.7691  -5.6514  -5.5549  -1.8351  -1.8116  -1.6161  -1.1646
    -1.1095  -0.9613  -0.8742  -0.6037  -0.5122  -0.4225  -0.3632  -0.3191

          k = 0.0000 0.2416-0.7202 ( 27836 PWs)   bands (ev):

   -25.1927 -25.1927 -10.6193 -10.6192 -10.4133 -10.4133 -10.3925 -10.3925
    -5.9100  -5.9099  -5.5374  -5.5374  -1.9525  -1.9517  -1.5711  -1.5707
    -0.8320  -0.8290  -0.7309  -0.7298  -0.4979  -0.4966  -0.4338  -0.4303

          k = 0.0000-0.4831 0.0000 ( 27884 PWs)   bands (ev):

   -25.1993 -25.1993 -10.4854 -10.4854 -10.4501 -10.4501 -10.3095 -10.3095
    -6.1596  -6.1596  -5.6129  -5.6129  -1.7587  -1.7587  -1.1368  -1.1368
    -1.0247  -1.0247  -0.6620  -0.6620  -0.6146  -0.6146  -0.3435  -0.3435

          k = 0.0000-0.4831 0.3601 ( 27882 PWs)   bands (ev):

   -25.1960 -25.1960 -10.5130 -10.5130 -10.4315 -10.4315 -10.3969 -10.3969
    -5.9941  -5.9941  -5.6145  -5.6145  -1.8123  -1.8123  -1.3879  -1.3879
    -0.9406  -0.9406  -0.6736  -0.6736  -0.6141  -0.6141  -0.3448  -0.3448

          k = 0.0000-0.4831-0.7202 ( 27848 PWs)   bands (ev):

   -25.1927 -25.1927 -10.6305 -10.6305 -10.4046 -10.4046 -10.3878 -10.3878
    -5.9841  -5.9841  -5.4614  -5.4614  -2.0314  -2.0314  -1.4335  -1.4335
    -0.7975  -0.7975  -0.6518  -0.6518  -0.6450  -0.6450  -0.4403  -0.4403

          k = 0.2500 0.0000 0.0000 ( 27908 PWs)   bands (ev):

   -25.2008 -25.1978 -10.5369 -10.5097 -10.4136 -10.4051 -10.3239 -10.2951
    -6.5035  -5.9043  -5.5431  -5.5139  -2.0886  -1.3635  -1.3620  -1.2031
    -0.9705  -0.8986  -0.8749  -0.7732  -0.6391  -0.4773  -0.2833  -0.2778

          k = 0.2500 0.0000 0.3601 ( 27908 PWs)   bands (ev):

   -25.1971 -25.1949 -10.5111 -10.5005 -10.4638 -10.4368 -10.3953 -10.3775
    -6.1858  -5.7111  -5.6374  -5.6323  -1.9128  -1.7665  -1.6592  -1.1809
    -1.1043  -0.9587  -0.7956  -0.6569  -0.5662  -0.3577  -0.3442  -0.3019

          k = 0.2500 0.0000-0.7202 ( 27934 PWs)   bands (ev):

   -25.1927 -25.1927 -10.6208 -10.6207 -10.4144 -10.4144 -10.3922 -10.3922
    -5.8283  -5.8280  -5.6078  -5.6075  -2.1266  -2.1261  -1.4623  -1.4603
    -0.8386  -0.8384  -0.6913  -0.6891  -0.5196  -0.5182  -0.3477  -0.3456

          k = 0.2500 0.2416 0.0000 ( 27923 PWs)   bands (ev):

   -25.2004 -25.1982 -10.5549 -10.4795 -10.4563 -10.3774 -10.3196 -10.2993
    -6.4101  -5.9345  -5.6568  -5.4992  -1.9237  -1.5711  -1.3618  -1.0386
    -0.9819  -0.9789  -0.7483  -0.7129  -0.6096  -0.5988  -0.3787  -0.2561

          k = 0.2500 0.2416 0.3601 ( 27899 PWs)   bands (ev):

   -25.1968 -25.1952 -10.5107 -10.5008 -10.4764 -10.4242 -10.3978 -10.3765
    -6.1199  -5.7653  -5.6898  -5.6075  -1.8922  -1.7538  -1.6741  -1.2253
    -0.9864  -0.9492  -0.7956  -0.6155  -0.5877  -0.4428  -0.3357  -0.2939

          k = 0.2500 0.2416-0.7202 ( 27888 PWs)   bands (ev):

   -25.1927 -25.1927 -10.6290 -10.6088 -10.4292 -10.4012 -10.3956 -10.3916
    -5.9317  -5.7769  -5.6566  -5.5022  -2.1525  -2.0416  -1.5657  -1.4895
    -0.8584  -0.7880  -0.6690  -0.6215  -0.5524  -0.4387  -0.4076  -0.3337

          k = 0.2500-0.4831 0.0000 ( 27924 PWs)   bands (ev):

   -25.1993 -25.1993 -10.5360 -10.5360 -10.3996 -10.3996 -10.3094 -10.3094
    -6.1687  -6.1687  -5.5988  -5.5988  -1.7036  -1.7036  -1.1778  -1.1778
    -1.0548  -1.0548  -0.6320  -0.6320  -0.6291  -0.6291  -0.3573  -0.3573

          k = 0.2500-0.4831 0.3601 ( 27906 PWs)   bands (ev):

   -25.1960 -25.1960 -10.5109 -10.5109 -10.4509 -10.4509 -10.3822 -10.3822
    -5.9535  -5.9535  -5.6457  -5.6457  -1.8450  -1.8450  -1.4529  -1.4529
    -0.9113  -0.9113  -0.6737  -0.6737  -0.5264  -0.5264  -0.3406  -0.3406

          k = 0.2500-0.4831-0.7202 ( 27848 PWs)   bands (ev):

   -25.1927 -25.1927 -10.6182 -10.6182 -10.4164 -10.4164 -10.3933 -10.3933
    -5.9098  -5.9098  -5.5218  -5.5218  -2.0723  -2.0723  -1.5889  -1.5889
    -0.7911  -0.7911  -0.6180  -0.6180  -0.5034  -0.5034  -0.3635  -0.3635

          k =-0.5000 0.0000 0.0000 ( 27930 PWs)   bands (ev):

   -25.1993 -25.1993 -10.4786 -10.4786 -10.4606 -10.4606 -10.3094 -10.3094
    -6.1658  -6.1658  -5.5875  -5.5875  -1.7148  -1.7148  -1.0250  -1.0250
    -0.9042  -0.9042  -0.7998  -0.7998  -0.7664  -0.7664  -0.4271  -0.4271

          k =-0.5000 0.0000 0.3601 ( 27904 PWs)   bands (ev):

   -25.1960 -25.1960 -10.5138 -10.5138 -10.4392 -10.4392 -10.3926 -10.3926
    -5.9217  -5.9217  -5.6691  -5.6691  -1.8634  -1.8634  -1.4197  -1.4197
    -0.9287  -0.9287  -0.7391  -0.7391  -0.4891  -0.4891  -0.3445  -0.3445

          k =-0.5000 0.0000-0.7202 ( 27940 PWs)   bands (ev):

   -25.1927 -25.1927 -10.6334 -10.6334 -10.4058 -10.4058 -10.3884 -10.3884
    -5.8651  -5.8651  -5.5567  -5.5567  -2.2844  -2.2844  -1.2889  -1.2889
    -0.8068  -0.8068  -0.7892  -0.7892  -0.4008  -0.4008  -0.3650  -0.3650

          k =-0.5000 0.2416 0.0000 ( 27924 PWs)   bands (ev):

   -25.1993 -25.1993 -10.5360 -10.5360 -10.4014 -10.4014 -10.3093 -10.3093
    -6.1718  -6.1718  -5.5860  -5.5860  -1.6854  -1.6854  -1.1098  -1.1098
    -1.0197  -1.0197  -0.7378  -0.7378  -0.6752  -0.6752  -0.3748  -0.3748

          k =-0.5000 0.2416 0.3601 ( 27890 PWs)   bands (ev):

   -25.1960 -25.1960 -10.5116 -10.5116 -10.4530 -10.4530 -10.3815 -10.3815
    -5.9125  -5.9125  -5.6777  -5.6777  -1.8662  -1.8662  -1.4825  -1.4825
    -0.8839  -0.8839  -0.7041  -0.7041  -0.4323  -0.4323  -0.3876  -0.3876

          k =-0.5000 0.2416-0.7202 ( 27916 PWs)   bands (ev):

   -25.1927 -25.1927 -10.6198 -10.6198 -10.4165 -10.4165 -10.3939 -10.3939
    -5.8340  -5.8340  -5.5856  -5.5856  -2.2196  -2.2196  -1.4938  -1.4938
    -0.7580  -0.7580  -0.7193  -0.7193  -0.4351  -0.4351  -0.2779  -0.2779

          k =-0.5000-0.4831 0.0000 ( 27892 PWs)   bands (ev):

   -25.1993 -25.1993 -10.5626 -10.5626 -10.3730 -10.3730 -10.3092 -10.3092
    -6.1778  -6.1778  -5.5844  -5.5844  -1.6415  -1.6415  -1.2252  -1.2252
    -1.0811  -1.0811  -0.6424  -0.6424  -0.6046  -0.6046  -0.3741  -0.3741

          k =-0.5000-0.4831 0.3601 ( 27920 PWs)   bands (ev):

   -25.1960 -25.1960 -10.5092 -10.5092 -10.4636 -10.4636 -10.3738 -10.3738
    -5.9028  -5.9028  -5.6868  -5.6868  -1.8564  -1.8564  -1.5602  -1.5602
    -0.8489  -0.8489  -0.5580  -0.5580  -0.5323  -0.5323  -0.3727  -0.3727

          k =-0.5000-0.4831-0.7202 ( 27880 PWs)   bands (ev):

   -25.1927 -25.1927 -10.6040 -10.6040 -10.4322 -10.4322 -10.3968 -10.3968
    -5.7932  -5.7932  -5.6243  -5.6243  -2.1072  -2.1072  -1.7208  -1.7208
    -0.7554  -0.7554  -0.5277  -0.5277  -0.5170  -0.5170  -0.2458  -0.2458

     highest occupied level (ev):    -0.1528

!    total energy              =    -156.45577742 Ry
     estimated scf accuracy    <          4.7E-11 Ry

     The total energy is the sum of the following terms:
     one-electron contribution =     -35.60697328 Ry
     hartree contribution      =      30.32227575 Ry
     xc contribution           =     -48.96391662 Ry
     ewald contribution        =    -102.20716326 Ry

     convergence has been achieved in  11 iterations

     Forces acting on atoms (cartesian axes, Ry/au):

     atom    1 type  2   force =     0.00000000    0.00000000   -0.00001836
     atom    2 type  2   force =     0.00000000    0.00000000    0.00001836
     atom    3 type  1   force =    -0.00183980    0.00233575    0.00000545
     atom    4 type  1   force =     0.00183980   -0.00233575    0.00000545
     atom    5 type  1   force =    -0.00183980   -0.00233575   -0.00000545
     atom    6 type  1   force =     0.00183980    0.00233575   -0.00000545
     atom    7 type  3   force =    -0.00676870    0.00299387   -0.00012115
     atom    8 type  3   force =     0.00676870   -0.00299387   -0.00012115
     atom    9 type  3   force =    -0.00676870   -0.00299387    0.00012115
     atom   10 type  3   force =     0.00676870    0.00299387    0.00012115
     atom   11 type  3   force =     0.00375275    0.00670929    0.00001303
     atom   12 type  3   force =    -0.00375275   -0.00670929    0.00001303
     atom   13 type  3   force =     0.00375275   -0.00670929   -0.00001303
     atom   14 type  3   force =    -0.00375275    0.00670929   -0.00001303
     atom   15 type  3   force =     0.00124150   -0.00231728   -0.00427256
     atom   16 type  3   force =    -0.00124150    0.00231728   -0.00427256
     atom   17 type  3   force =     0.00124150    0.00231728    0.00427256
     atom   18 type  3   force =    -0.00124150   -0.00231728    0.00427256
     atom   19 type  3   force =    -0.00140989    0.00239400    0.00435375
     atom   20 type  3   force =     0.00140989   -0.00239400    0.00435375
     atom   21 type  3   force =    -0.00140989   -0.00239400   -0.00435375
     atom   22 type  3   force =     0.00140989    0.00239400   -0.00435375

     Total force =     0.026425     Total SCF correction =     0.000004


     Computing stress (Cartesian axis) and pressure

          total   stress  (Ry/bohr**3)                   (kbar)     P=      -14.61
  -0.00002958   0.00000000   0.00000000           -4.35        0.00        0.00
   0.00000000  -0.00009103   0.00000000            0.00      -13.39        0.00
   0.00000000   0.00000000  -0.00017740            0.00        0.00      -26.10


     BFGS Geometry Optimization
     Energy error            =      0.0E+00 Ry
     Gradient error          =      6.8E-03 Ry/Bohr
     Cell gradient error     =      2.6E+01 kbar

     number of scf cycles    =   1
     number of bfgs steps    =   0

     enthalpy           new  =    -156.4557774193 Ry

     new trust radius        =       0.0360553867 bohr
     new conv_thr            =            1.0E-10 Ry

     new unit-cell volume =   1639.96297 a.u.^3 (   243.01744 Ang^3 )
     density =      2.28239 g/cm^3

CELL_PARAMETERS (alat= 13.19928345)
   0.999260416   0.000000000   0.000000000
   0.000000000   1.032527846   0.000000000
   0.000000000   0.000000000   0.691198072

ATOMIC_POSITIONS (crystal)
Ba               0.5000000000        0.5000000000        0.5000779967
Ba               0.0000000000        0.0000000000        0.9999220033
B                0.6306606134        0.2541709952        0.0000205943
B                0.3693393866        0.7458290048        0.0000205943
B                0.1306606134        0.2458290048        0.4999794057
B                0.8693393866        0.7541709952        0.4999794057
H                0.4576871920        0.2842191750        0.0002467802
H                0.5423128080        0.7157808250        0.0002467802
H                0.9576871920        0.2157808250        0.4997532198
H                0.0423128080        0.7842191750        0.4997532198
H                0.7206843146        0.4006911733        0.0000014218
H                0.2793156854        0.5993088267        0.0000014218
H                0.2206843146        0.0993088267        0.4999985782
H                0.7793156854        0.9006911733        0.4999985782
H                0.6689940578        0.1654303570        0.7908737651
H                0.3310059422        0.8345696430        0.7908737651
H                0.1689940578        0.3345696430        0.7091262349
H                0.8310059422        0.6654303570        0.7091262349
H                0.3309931845        0.8345752598        0.2091350952
H                0.6690068155        0.1654247402        0.2091350952
H                0.8309931845        0.6654247402        0.2908649048
H                0.1690068155        0.3345752598        0.2908649048



     Writing config-only to output data dir ./pwscf.save/ :
     XML data file
     NEW-OLD atomic charge density approx. for the potential

     total cpu time spent up to now is      231.1 secs

     Self-consistent Calculation

     iteration #  1     ecut=   100.00 Ry     beta= 0.70
     Davidson diagonalization with overlap
     ethr =  1.00E-06,  avg # of iterations =  3.0

     total cpu time spent up to now is      251.9 secs

     total energy              =    -156.45802910 Ry
     estimated scf accuracy    <       0.00008180 Ry

     iteration #  2     ecut=   100.00 Ry     beta= 0.70
     Davidson diagonalization with overlap
     ethr =  1.70E-07,  avg # of iterations =  2.0

     total cpu time spent up to now is      266.5 secs

     total energy              =    -156.45804845 Ry
     estimated scf accuracy    <       0.00000708 Ry

     iteration #  3     ecut=   100.00 Ry     beta= 0.70
     Davidson diagonalization with overlap
     ethr =  1.48E-08,  avg # of iterations =  2.0

     total cpu time spent up to now is      281.1 secs

     total energy              =    -156.45804981 Ry
     estimated scf accuracy    <       0.00000028 Ry

     iteration #  4     ecut=   100.00 Ry     beta= 0.70
     Davidson diagonalization with overlap
     ethr =  5.87E-10,  avg # of iterations =  5.2

     total cpu time spent up to now is      302.5 secs

     total energy              =    -156.45804999 Ry
     estimated scf accuracy    <       0.00000006 Ry

     iteration #  5     ecut=   100.00 Ry     beta= 0.70
     Davidson diagonalization with overlap
     ethr =  1.26E-10,  avg # of iterations =  3.3

     total cpu time spent up to now is      318.9 secs

     total energy              =    -156.45805001 Ry
     estimated scf accuracy    <          6.3E-09 Ry

     iteration #  6     ecut=   100.00 Ry     beta= 0.70
     Davidson diagonalization with overlap
     ethr =  1.31E-11,  avg # of iterations =  4.3

     total cpu time spent up to now is      336.1 secs

     End of self-consistent calculation

          k = 0.0000 0.0000 0.0000 ( 27937 PWs)   bands (ev):

   -25.1238 -25.1193 -10.4967 -10.4594 -10.3163 -10.3050 -10.2567 -10.2148
    -6.6174  -5.8315  -5.4651  -5.3388  -2.2623  -1.4181  -1.3811  -1.0604
    -0.9786  -0.9548  -0.8487  -0.8164  -0.5143  -0.1728  -0.1726  -0.1141

          k = 0.0000 0.0000 0.3617 ( 27905 PWs)   bands (ev):

   -25.1196 -25.1164 -10.4386 -10.4148 -10.4107 -10.3893 -10.3094 -10.3048
    -6.2563  -5.6706  -5.5676  -5.4817  -1.9372  -1.7685  -1.4848  -1.2030
    -1.1509  -1.0921  -0.7202  -0.5719  -0.4244  -0.3315  -0.2598  -0.2498

          k = 0.0000 0.0000-0.7234 ( 27838 PWs)   bands (ev):

   -25.1145 -25.1145 -10.5482 -10.5482 -10.3557 -10.3557 -10.3216 -10.3215
    -5.7088  -5.7084  -5.6498  -5.6495  -1.8166  -1.8149  -1.6720  -1.6709
    -0.8542  -0.8517  -0.7546  -0.7540  -0.4049  -0.4048  -0.3079  -0.3039

          k = 0.0000 0.2421 0.0000 ( 27927 PWs)   bands (ev):

   -25.1231 -25.1199 -10.4747 -10.4381 -10.3468 -10.3281 -10.2505 -10.2209
    -6.4779  -5.8129  -5.6207  -5.4092  -2.0275  -1.5686  -1.4266  -0.9844
    -0.9258  -0.8531  -0.7521  -0.7182  -0.5373  -0.4701  -0.1975  -0.1949

          k = 0.0000 0.2421 0.3617 ( 27878 PWs)   bands (ev):

   -25.1191 -25.1169 -10.4537 -10.4215 -10.3888 -10.3775 -10.3180 -10.3102
    -6.1706  -5.7259  -5.6037  -5.5098  -1.8088  -1.7875  -1.5901  -1.1264
    -1.0721  -0.9204  -0.8349  -0.5567  -0.4695  -0.3792  -0.3212  -0.2785

          k = 0.0000 0.2421-0.7234 ( 27836 PWs)   bands (ev):

   -25.1145 -25.1145 -10.5610 -10.5609 -10.3424 -10.3424 -10.3198 -10.3198
    -5.8708  -5.8707  -5.4851  -5.4851  -1.9317  -1.9310  -1.5378  -1.5373
    -0.7899  -0.7870  -0.6945  -0.6934  -0.4555  -0.4546  -0.3893  -0.3859

          k = 0.0000-0.4842 0.0000 ( 27884 PWs)   bands (ev):

   -25.1215 -25.1215 -10.4180 -10.4180 -10.3809 -10.3809 -10.2357 -10.2357
    -6.1235  -6.1235  -5.5679  -5.5679  -1.7365  -1.7365  -1.1045  -1.1045
    -0.9767  -0.9767  -0.6101  -0.6101  -0.5761  -0.5761  -0.3062  -0.3062

          k = 0.0000-0.4842 0.3617 ( 27882 PWs)   bands (ev):

   -25.1180 -25.1180 -10.4479 -10.4479 -10.3610 -10.3610 -10.3270 -10.3270
    -5.9532  -5.9532  -5.5682  -5.5682  -1.7878  -1.7878  -1.3557  -1.3557
    -0.9005  -0.9005  -0.6272  -0.6272  -0.5753  -0.5753  -0.3022  -0.3022

          k = 0.0000-0.4842-0.7234 ( 27848 PWs)   bands (ev):

   -25.1145 -25.1145 -10.5722 -10.5722 -10.3332 -10.3332 -10.3154 -10.3154
    -5.9480  -5.9480  -5.4053  -5.4053  -2.0117  -2.0117  -1.3968  -1.3968
    -0.7615  -0.7615  -0.6114  -0.6114  -0.6071  -0.6071  -0.3923  -0.3923

          k = 0.2502 0.0000 0.0000 ( 27908 PWs)   bands (ev):

   -25.1231 -25.1199 -10.4712 -10.4429 -10.3433 -10.3341 -10.2505 -10.2209
    -6.4745  -5.8668  -5.4926  -5.4662  -2.0700  -1.3353  -1.3333  -1.1765
    -0.9228  -0.8518  -0.8210  -0.7403  -0.5875  -0.4399  -0.2422  -0.2347

          k = 0.2502 0.0000 0.3617 ( 27908 PWs)   bands (ev):

   -25.1191 -25.1169 -10.4457 -10.4341 -10.3966 -10.3681 -10.3239 -10.3057
    -6.1468  -5.6647  -5.5941  -5.5862  -1.8867  -1.7403  -1.6314  -1.1440
    -1.0687  -0.9206  -0.7554  -0.6167  -0.5175  -0.3159  -0.3038  -0.2568

          k = 0.2502 0.0000-0.7234 ( 27934 PWs)   bands (ev):

   -25.1145 -25.1145 -10.5626 -10.5625 -10.3435 -10.3435 -10.3195 -10.3195
    -5.7878  -5.7875  -5.5568  -5.5565  -2.1053  -2.1049  -1.4279  -1.4261
    -0.7956  -0.7956  -0.6544  -0.6524  -0.4814  -0.4800  -0.3014  -0.2997

          k = 0.2502 0.2421 0.0000 ( 27923 PWs)   bands (ev):

   -25.1226 -25.1204 -10.4899 -10.4117 -10.3875 -10.3054 -10.2461 -10.2251
    -6.3797  -5.8972  -5.6101  -5.4500  -1.9031  -1.5460  -1.3336  -0.9918
    -0.9484  -0.9327  -0.6963  -0.6760  -0.5631  -0.5567  -0.3381  -0.2163

          k = 0.2502 0.2421 0.3617 ( 27899 PWs)   bands (ev):

   -25.1188 -25.1172 -10.4454 -10.4336 -10.4107 -10.3543 -10.3278 -10.3039
    -6.0801  -5.7221  -5.6433  -5.5625  -1.8663  -1.7277  -1.6456  -1.1892
    -0.9532  -0.9063  -0.7531  -0.5715  -0.5465  -0.4012  -0.2898  -0.2535

          k = 0.2502 0.2421-0.7234 ( 27888 PWs)   bands (ev):

   -25.1145 -25.1145 -10.5707 -10.5505 -10.3586 -10.3301 -10.3229 -10.3188
    -5.8948  -5.7345  -5.6075  -5.4471  -2.1321  -2.0189  -1.5336  -1.4528
    -0.8230  -0.7490  -0.6244  -0.5781  -0.5146  -0.4013  -0.3657  -0.2860

          k = 0.2502-0.4842 0.0000 ( 27924 PWs)   bands (ev):

   -25.1215 -25.1215 -10.4704 -10.4704 -10.3285 -10.3285 -10.2355 -10.2355
    -6.1344  -6.1344  -5.5518  -5.5518  -1.6809  -1.6809  -1.1456  -1.1456
    -1.0079  -1.0079  -0.5928  -0.5928  -0.5781  -0.5781  -0.3196  -0.3196

          k = 0.2502-0.4842 0.3617 ( 27906 PWs)   bands (ev):

   -25.1180 -25.1180 -10.4450 -10.4450 -10.3833 -10.3833 -10.3103 -10.3103
    -5.9118  -5.9118  -5.6002  -5.6002  -1.8193  -1.8193  -1.4207  -1.4207
    -0.8710  -0.8710  -0.6322  -0.6322  -0.4825  -0.4825  -0.2995  -0.2995

          k = 0.2502-0.4842-0.7234 ( 27848 PWs)   bands (ev):

   -25.1145 -25.1145 -10.5598 -10.5598 -10.3456 -10.3456 -10.3206 -10.3206
    -5.8720  -5.8720  -5.4676  -5.4676  -2.0510  -2.0510  -1.5542  -1.5542
    -0.7521  -0.7521  -0.5797  -0.5797  -0.4616  -0.4616  -0.3187  -0.3187

          k =-0.5004 0.0000 0.0000 ( 27930 PWs)   bands (ev):

   -25.1215 -25.1215 -10.4108 -10.4108 -10.3919 -10.3919 -10.2356 -10.2356
    -6.1317  -6.1317  -5.5397  -5.5397  -1.6922  -1.6922  -0.9926  -0.9926
    -0.8556  -0.8556  -0.7485  -0.7485  -0.7356  -0.7356  -0.3845  -0.3845

          k =-0.5004 0.0000 0.3617 ( 27904 PWs)   bands (ev):

   -25.1180 -25.1180 -10.4488 -10.4488 -10.3692 -10.3692 -10.3222 -10.3222
    -5.8797  -5.8797  -5.6239  -5.6239  -1.8358  -1.8358  -1.3893  -1.3893
    -0.8862  -0.8862  -0.7045  -0.7045  -0.4454  -0.4454  -0.2992  -0.2992

          k =-0.5004 0.0000-0.7234 ( 27940 PWs)   bands (ev):

   -25.1145 -25.1145 -10.5753 -10.5753 -10.3345 -10.3345 -10.3158 -10.3158
    -5.8277  -5.8277  -5.5019  -5.5019  -2.2642  -2.2642  -1.2500  -1.2500
    -0.7655  -0.7655  -0.7551  -0.7551  -0.3581  -0.3581  -0.3228  -0.3228

          k =-0.5004 0.2421 0.0000 ( 27924 PWs)   bands (ev):

   -25.1215 -25.1215 -10.4704 -10.4704 -10.3303 -10.3303 -10.2355 -10.2355
    -6.1385  -6.1385  -5.5376  -5.5376  -1.6623  -1.6623  -1.0776  -1.0776
    -0.9726  -0.9726  -0.7047  -0.7047  -0.6221  -0.6221  -0.3344  -0.3344

          k =-0.5004 0.2421 0.3617 ( 27890 PWs)   bands (ev):

   -25.1180 -25.1180 -10.4457 -10.4457 -10.3854 -10.3854 -10.3096 -10.3096
    -5.8702  -5.8702  -5.6328  -5.6328  -1.8391  -1.8391  -1.4513  -1.4513
    -0.8411  -0.8411  -0.6679  -0.6679  -0.3857  -0.3857  -0.3472  -0.3472

          k =-0.5004 0.2421-0.7234 ( 27916 PWs)   bands (ev):

   -25.1145 -25.1145 -10.5615 -10.5615 -10.3458 -10.3458 -10.3212 -10.3212
    -5.7956  -5.7956  -5.5319  -5.5319  -2.1983  -2.1983  -1.4580  -1.4580
    -0.7146  -0.7146  -0.6839  -0.6839  -0.3965  -0.3965  -0.2323  -0.2323

          k =-0.5004-0.4842 0.0000 ( 27892 PWs)   bands (ev):

   -25.1215 -25.1215 -10.4980 -10.4980 -10.3007 -10.3007 -10.2354 -10.2354
    -6.1454  -6.1454  -5.5355  -5.5355  -1.6184  -1.6184  -1.1929  -1.1929
    -1.0350  -1.0350  -0.6068  -0.6068  -0.5504  -0.5504  -0.3362  -0.3362

          k =-0.5004-0.4842 0.3617 ( 27920 PWs)   bands (ev):

   -25.1180 -25.1180 -10.4420 -10.4420 -10.3982 -10.3982 -10.3011 -10.3011
    -5.8600  -5.8600  -5.6424  -5.6424  -1.8301  -1.8301  -1.5279  -1.5279
    -0.8062  -0.8062  -0.5202  -0.5202  -0.4881  -0.4881  -0.3311  -0.3311

          k =-0.5004-0.4842-0.7234 ( 27880 PWs)   bands (ev):

   -25.1145 -25.1145 -10.5456 -10.5456 -10.3617 -10.3617 -10.3241 -10.3241
    -5.7538  -5.7538  -5.5717  -5.5717  -2.0847  -2.0847  -1.6875  -1.6875
    -0.7119  -0.7119  -0.4904  -0.4904  -0.4781  -0.4781  -0.2007  -0.2007

     highest occupied level (ev):    -0.1141

!    total energy              =    -156.45805002 Ry
     estimated scf accuracy    <          3.8E-11 Ry

     The total energy is the sum of the following terms:
     one-electron contribution =     -35.11696131 Ry
     hartree contribution      =      30.17382430 Ry
     xc contribution           =     -48.97726182 Ry
     ewald contribution        =    -102.53765118 Ry

     convergence has been achieved in   6 iterations

     Forces acting on atoms (cartesian axes, Ry/au):

     atom    1 type  2   force =     0.00000000    0.00000000   -0.00001769
     atom    2 type  2   force =     0.00000000    0.00000000    0.00001769
     atom    3 type  1   force =    -0.00224593    0.00288589    0.00003846
     atom    4 type  1   force =     0.00224593   -0.00288589    0.00003846
     atom    5 type  1   force =    -0.00224593   -0.00288589   -0.00003846
     atom    6 type  1   force =     0.00224593    0.00288589   -0.00003846
     atom    7 type  3   force =    -0.00526231    0.00277181   -0.00011006
     atom    8 type  3   force =     0.00526231   -0.00277181   -0.00011006
     atom    9 type  3   force =    -0.00526231   -0.00277181    0.00011006
     atom   10 type  3   force =     0.00526231    0.00277181    0.00011006
     atom   11 type  3   force =     0.00301064    0.00594821    0.00001190
     atom   12 type  3   force =    -0.00301064   -0.00594821    0.00001190
     atom   13 type  3   force =     0.00301064   -0.00594821   -0.00001190
     atom   14 type  3   force =    -0.00301064    0.00594821   -0.00001190
     atom   15 type  3   force =     0.00102891   -0.00235466   -0.00507544
     atom   16 type  3   force =    -0.00102891    0.00235466   -0.00507544
     atom   17 type  3   force =     0.00102891    0.00235466    0.00507544
     atom   18 type  3   force =    -0.00102891   -0.00235466    0.00507544
     atom   19 type  3   force =    -0.00116888    0.00240125    0.00511425
     atom   20 type  3   force =     0.00116888   -0.00240125    0.00511425
     atom   21 type  3   force =    -0.00116888   -0.00240125   -0.00511425
     atom   22 type  3   force =     0.00116888    0.00240125   -0.00511425

     Total force =     0.025208     Total SCF correction =     0.000002


     Computing stress (Cartesian axis) and pressure

          total   stress  (Ry/bohr**3)                   (kbar)     P=      -13.59
  -0.00003356   0.00000000   0.00000000           -4.94        0.00        0.00
   0.00000000  -0.00008659   0.00000000            0.00      -12.74        0.00
   0.00000000   0.00000000  -0.00015706            0.00        0.00      -23.10

     Energy error            =      2.3E-03 Ry
     Gradient error          =      5.9E-03 Ry/Bohr
     Cell gradient error     =      2.3E+01 kbar

     number of scf cycles    =   2
     number of bfgs steps    =   1

     enthalpy           old  =    -156.4557774193 Ry
     enthalpy           new  =    -156.4580500157 Ry

     CASE: enthalpy          _new < enthalpy          _old


     WARNING: bfgs curvature condition failed, Theta= 0.877
     new trust radius        =       0.0396892266 bohr
     new conv_thr            =            1.0E-10 Ry

     new unit-cell volume =   1626.03308 a.u.^3 (   240.95324 Ang^3 )
     density =      2.30195 g/cm^3

CELL_PARAMETERS (alat= 13.19928345)
   0.998285765   0.000000000   0.000000000
   0.000000000   1.029803428   0.000000000
   0.000000000   0.000000000   0.687810971

ATOMIC_POSITIONS (crystal)
Ba               0.5000000000        0.5000000000        0.5000756563
Ba               0.0000000000        0.0000000000        0.9999243437
B                0.6304653802        0.2544124649        0.0000245059
B                0.3695346198        0.7455875351        0.0000245059
B                0.1304653802        0.2455875351        0.4999754941
B                0.8695346198        0.7544124649        0.4999754941
H                0.4571714791        0.2844682913        0.0002319819
H                0.5428285209        0.7155317087        0.0002319819
H                0.9571714791        0.2155317087        0.4997680181
H                0.0428285209        0.7844682913        0.4997680181
H                0.7209765230        0.4012322872        0.0000030193
H                0.2790234770        0.5987677128        0.0000030193
H                0.2209765230        0.0987677128        0.4999969807
H                0.7790234770        0.9012322872        0.4999969807
H                0.6690929493        0.1652239100        0.7902361923
H                0.3309070507        0.8347760900        0.7902361923
H                0.1690929493        0.3347760900        0.7097638077
H                0.8309070507        0.6652239100        0.7097638077
H                0.3308808516        0.8347864988        0.2097792002
H                0.6691191484        0.1652135012        0.2097792002
H                0.8308808516        0.6652135012        0.2902207998
H                0.1691191484        0.3347864988        0.2902207998



     Writing config-only to output data dir ./pwscf.save/ :
     XML data file
     NEW-OLD atomic charge density approx. for the potential

     total cpu time spent up to now is      350.7 secs

     Self-consistent Calculation

     iteration #  1     ecut=   100.00 Ry     beta= 0.70
     Davidson diagonalization with overlap
     ethr =  1.00E-06,  avg # of iterations =  3.7

     total cpu time spent up to now is      372.1 secs

     total energy              =    -156.46035789 Ry
     estimated scf accuracy    <       0.00011024 Ry

     iteration #  2     ecut=   100.00 Ry     beta= 0.70
     Davidson diagonalization with overlap
     ethr =  2.30E-07,  avg # of iterations =  2.0

     total cpu time spent up to now is      386.7 secs

     total energy              =    -156.46038556 Ry
     estimated scf accuracy    <       0.00001017 Ry

     iteration #  3     ecut=   100.00 Ry     beta= 0.70
     Davidson diagonalization with overlap
     ethr =  2.12E-08,  avg # of iterations =  2.0

     total cpu time spent up to now is      401.3 secs

     total energy              =    -156.46038748 Ry
     estimated scf accuracy    <       0.00000037 Ry

     iteration #  4     ecut=   100.00 Ry     beta= 0.70
     Davidson diagonalization with overlap
     ethr =  7.80E-10,  avg # of iterations =  5.2

     total cpu time spent up to now is      422.8 secs

     total energy              =    -156.46038772 Ry
     estimated scf accuracy    <       0.00000009 Ry

     iteration #  5     ecut=   100.00 Ry     beta= 0.70
     Davidson diagonalization with overlap
     ethr =  1.94E-10,  avg # of iterations =  3.1

     total cpu time spent up to now is      438.3 secs

     total energy              =    -156.46038775 Ry
     estimated scf accuracy    <          6.4E-09 Ry

     iteration #  6     ecut=   100.00 Ry     beta= 0.70
     Davidson diagonalization with overlap
     ethr =  1.33E-11,  avg # of iterations =  4.8

     total cpu time spent up to now is      456.9 secs

     End of self-consistent calculation

          k = 0.0000 0.0000 0.0000 ( 27937 PWs)   bands (ev):

   -25.0347 -25.0299 -10.4226 -10.3837 -10.2346 -10.2220 -10.1730 -10.1297
    -6.5865  -5.7880  -5.4046  -5.2809  -2.2427  -1.3868  -1.3537  -1.0254
    -0.9219  -0.9191  -0.7938  -0.7513  -0.4516  -0.1261  -0.1213  -0.0702

          k = 0.0000 0.0000 0.3635 ( 27905 PWs)   bands (ev):

   -25.0302 -25.0269 -10.3615 -10.3366 -10.3366 -10.3149 -10.2266 -10.2213
    -6.2123  -5.6170  -5.5135  -5.4295  -1.9069  -1.7413  -1.4537  -1.1721
    -1.1058  -1.0393  -0.6695  -0.5155  -0.3696  -0.2863  -0.2162  -0.1991

          k = 0.0000 0.0000-0.7269 ( 27838 PWs)   bands (ev):

   -25.0247 -25.0247 -10.4823 -10.4822 -10.2745 -10.2745 -10.2382 -10.2382
    -5.6495  -5.6490  -5.6032  -5.6029  -1.7912  -1.7898  -1.6350  -1.6340
    -0.8006  -0.7982  -0.7160  -0.7155  -0.3594  -0.3593  -0.2521  -0.2487

          k = 0.0000 0.2428 0.0000 ( 27927 PWs)   bands (ev):

   -25.0340 -25.0306 -10.3999 -10.3615 -10.2666 -10.2462 -10.1666 -10.1360
    -6.4438  -5.7687  -5.5647  -5.3530  -2.0043  -1.5403  -1.3976  -0.9276
    -0.8680  -0.8146  -0.7132  -0.6563  -0.4746  -0.4236  -0.1549  -0.1488

          k = 0.0000 0.2428 0.3635 ( 27878 PWs)   bands (ev):

   -25.0297 -25.0273 -10.3790 -10.3464 -10.3105 -10.3001 -10.2354 -10.2284
    -6.1255  -5.6755  -5.5485  -5.4573  -1.7777  -1.7601  -1.5604  -1.0801
    -1.0296  -0.8721  -0.7892  -0.5023  -0.4188  -0.3282  -0.2747  -0.2321

          k = 0.0000 0.2428-0.7269 ( 27836 PWs)   bands (ev):

   -25.0247 -25.0247 -10.4950 -10.4949 -10.2610 -10.2609 -10.2365 -10.2365
    -5.8252  -5.8251  -5.4241  -5.4241  -1.9076  -1.9071  -1.4978  -1.4973
    -0.7412  -0.7385  -0.6538  -0.6530  -0.4062  -0.4055  -0.3367  -0.3337

          k = 0.0000-0.4855 0.0000 ( 27884 PWs)   bands (ev):

   -25.0323 -25.0323 -10.3411 -10.3411 -10.3015 -10.3015 -10.1513 -10.1513
    -6.0817  -6.0817  -5.5152  -5.5152  -1.7112  -1.7112  -1.0674  -1.0674
    -0.9195  -0.9195  -0.5477  -0.5477  -0.5315  -0.5315  -0.2657  -0.2657

          k = 0.0000-0.4855 0.3635 ( 27882 PWs)   bands (ev):

   -25.0285 -25.0285 -10.3739 -10.3739 -10.2804 -10.2804 -10.2468 -10.2468
    -5.9056  -5.9056  -5.5145  -5.5145  -1.7600  -1.7600  -1.3173  -1.3173
    -0.8536  -0.8536  -0.5726  -0.5726  -0.5301  -0.5301  -0.2544  -0.2544

          k = 0.0000-0.4855-0.7269 ( 27848 PWs)   bands (ev):

   -25.0247 -25.0247 -10.5062 -10.5062 -10.2512 -10.2512 -10.2324 -10.2324
    -5.9060  -5.9060  -5.3401  -5.3401  -1.9890  -1.9890  -1.3524  -1.3524
    -0.7189  -0.7189  -0.5682  -0.5682  -0.5622  -0.5622  -0.3357  -0.3357

          k = 0.2504 0.0000 0.0000 ( 27908 PWs)   bands (ev):

   -25.0340 -25.0306 -10.3961 -10.3665 -10.2628 -10.2526 -10.1666 -10.1360
    -6.4410  -5.8236  -5.4335  -5.4103  -2.0478  -1.3045  -1.3003  -1.1474
    -0.8658  -0.7958  -0.7568  -0.7018  -0.5255  -0.3980  -0.1967  -0.1841

          k = 0.2504 0.0000 0.3635 ( 27908 PWs)   bands (ev):

   -25.0297 -25.0273 -10.3712 -10.3584 -10.3200 -10.2895 -10.2420 -10.2232
    -6.1014  -5.6107  -5.5436  -5.5326  -1.8568  -1.7096  -1.5995  -1.0991
    -1.0294  -0.8749  -0.7087  -0.5695  -0.4609  -0.2664  -0.2587  -0.2046

          k = 0.2504 0.0000-0.7269 ( 27934 PWs)   bands (ev):

   -25.0247 -25.0247 -10.4966 -10.4966 -10.2621 -10.2621 -10.2362 -10.2362
    -5.7408  -5.7405  -5.4972  -5.4969  -2.0808  -2.0804  -1.3867  -1.3851
    -0.7467  -0.7467  -0.6122  -0.6104  -0.4362  -0.4348  -0.2480  -0.2465

          k = 0.2504 0.2428 0.0000 ( 27923 PWs)   bands (ev):

   -25.0335 -25.0311 -10.4157 -10.3343 -10.3085 -10.2227 -10.1620 -10.1404
    -6.3445  -5.8544  -5.5553  -5.3924  -1.8785  -1.5174  -1.3025  -0.9360
    -0.9135  -0.8749  -0.6343  -0.6336  -0.5219  -0.4932  -0.2936  -0.1706

          k = 0.2504 0.2428 0.3635 ( 27899 PWs)   bands (ev):

   -25.0293 -25.0277 -10.3709 -10.3566 -10.3360 -10.2744 -10.2475 -10.2206
    -6.0337  -5.6716  -5.5894  -5.5102  -1.8367  -1.6975  -1.6121  -1.1459
    -0.9158  -0.8556  -0.7030  -0.5208  -0.4989  -0.3524  -0.2372  -0.2071

          k = 0.2504 0.2428-0.7269 ( 27888 PWs)   bands (ev):

   -25.0247 -25.0247 -10.5047 -10.4844 -10.2775 -10.2486 -10.2396 -10.2355
    -5.8519  -5.6857  -5.5497  -5.3829  -2.1086  -1.9929  -1.4949  -1.4088
    -0.7818  -0.7055  -0.5721  -0.5272  -0.4719  -0.3568  -0.3179  -0.2306

          k = 0.2504-0.4855 0.0000 ( 27924 PWs)   bands (ev):

   -25.0323 -25.0323 -10.3954 -10.3954 -10.2469 -10.2469 -10.1511 -10.1511
    -6.0949  -6.0949  -5.4967  -5.4967  -1.6545  -1.6545  -1.1091  -1.1091
    -0.9520  -0.9520  -0.5513  -0.5513  -0.5143  -0.5143  -0.2769  -0.2769

          k = 0.2504-0.4855 0.3635 ( 27906 PWs)   bands (ev):

   -25.0285 -25.0285 -10.3699 -10.3699 -10.3060 -10.3060 -10.2279 -10.2279
    -5.8633  -5.8633  -5.5473  -5.5473  -1.7901  -1.7901  -1.3823  -1.3823
    -0.8237  -0.8237  -0.5846  -0.5846  -0.4308  -0.4308  -0.2527  -0.2527

          k = 0.2504-0.4855-0.7269 ( 27848 PWs)   bands (ev):

   -25.0247 -25.0247 -10.4937 -10.4937 -10.2643 -10.2643 -10.2374 -10.2374
    -5.8280  -5.8280  -5.4044  -5.4044  -2.0266  -2.0266  -1.5126  -1.5126
    -0.7063  -0.7063  -0.5370  -0.5370  -0.4123  -0.4123  -0.2671  -0.2671

          k =-0.5009 0.0000 0.0000 ( 27930 PWs)   bands (ev):

   -25.0323 -25.0323 -10.3333 -10.3333 -10.3130 -10.3130 -10.1512 -10.1512
    -6.0924  -6.0924  -5.4835  -5.4835  -1.6657  -1.6657  -0.9566  -0.9566
    -0.7976  -0.7976  -0.7018  -0.7018  -0.6869  -0.6869  -0.3352  -0.3352

          k =-0.5009 0.0000 0.3635 ( 27904 PWs)   bands (ev):

   -25.0285 -25.0285 -10.3748 -10.3748 -10.2891 -10.2891 -10.2415 -10.2415
    -5.8309  -5.8309  -5.5711  -5.5711  -1.8045  -1.8045  -1.3527  -1.3527
    -0.8370  -0.8370  -0.6643  -0.6643  -0.3949  -0.3949  -0.2467  -0.2467

          k =-0.5009 0.0000-0.7269 ( 27940 PWs)   bands (ev):

   -25.0247 -25.0247 -10.5094 -10.5094 -10.2527 -10.2527 -10.2327 -10.2327
    -5.7843  -5.7843  -5.4382  -5.4382  -2.2412  -2.2412  -1.2032  -1.2032
    -0.7188  -0.7188  -0.7144  -0.7144  -0.3087  -0.3087  -0.2745  -0.2745

          k =-0.5009 0.2428 0.0000 ( 27924 PWs)   bands (ev):

   -25.0323 -25.0323 -10.3953 -10.3953 -10.2489 -10.2489 -10.1511 -10.1511
    -6.1002  -6.1002  -5.4809  -5.4809  -1.6352  -1.6352  -1.0420  -1.0420
    -0.9165  -0.9165  -0.6681  -0.6681  -0.5585  -0.5585  -0.2876  -0.2876

          k =-0.5009 0.2428 0.3635 ( 27890 PWs)   bands (ev):

   -25.0285 -25.0285 -10.3706 -10.3706 -10.3083 -10.3083 -10.2271 -10.2271
    -5.8209  -5.8209  -5.5806  -5.5806  -1.8082  -1.8082  -1.4140  -1.4140
    -0.7910  -0.7910  -0.6262  -0.6262  -0.3322  -0.3322  -0.2998  -0.2998

          k =-0.5009 0.2428-0.7269 ( 27916 PWs)   bands (ev):

   -25.0247 -25.0247 -10.4955 -10.4955 -10.2645 -10.2645 -10.2379 -10.2379
    -5.7510  -5.7510  -5.4694  -5.4694  -2.1738  -2.1738  -1.4153  -1.4153
    -0.6644  -0.6644  -0.6424  -0.6424  -0.3524  -0.3524  -0.1796  -0.1796

          k =-0.5009-0.4855 0.0000 ( 27892 PWs)   bands (ev):

   -25.0323 -25.0323 -10.4241 -10.4241 -10.2179 -10.2179 -10.1510 -10.1510
    -6.1080  -6.1080  -5.4782  -5.4782  -1.5906  -1.5906  -1.1575  -1.1575
    -0.9801  -0.9801  -0.5678  -0.5678  -0.4853  -0.4853  -0.2920  -0.2920

          k =-0.5009-0.4855 0.3635 ( 27920 PWs)   bands (ev):

   -25.0285 -25.0285 -10.3651 -10.3651 -10.3238 -10.3238 -10.2176 -10.2176
    -5.8102  -5.8102  -5.5907  -5.5907  -1.8001  -1.8001  -1.4895  -1.4895
    -0.7556  -0.7556  -0.4782  -0.4782  -0.4369  -0.4369  -0.2821  -0.2821

          k =-0.5009-0.4855-0.7269 ( 27880 PWs)   bands (ev):

   -25.0247 -25.0247 -10.4794 -10.4794 -10.2807 -10.2807 -10.2409 -10.2409
    -5.7082  -5.7082  -5.5102  -5.5102  -2.0588  -2.0588  -1.6478  -1.6478
    -0.6606  -0.6606  -0.4492  -0.4492  -0.4317  -0.4317  -0.1485  -0.1485

     highest occupied level (ev):    -0.0702

!    total energy              =    -156.46038776 Ry
     estimated scf accuracy    <          4.3E-11 Ry

     The total energy is the sum of the following terms:
     one-electron contribution =     -34.55346174 Ry
     hartree contribution      =      30.00341137 Ry
     xc contribution           =     -48.99253448 Ry
     ewald contribution        =    -102.91780290 Ry

     convergence has been achieved in   6 iterations

     Forces acting on atoms (cartesian axes, Ry/au):

     atom    1 type  2   force =     0.00000000    0.00000000   -0.00001520
     atom    2 type  2   force =     0.00000000    0.00000000    0.00001520
     atom    3 type  1   force =    -0.00198618    0.00253022    0.00004511
     atom    4 type  1   force =     0.00198618   -0.00253022    0.00004511
     atom    5 type  1   force =    -0.00198618   -0.00253022   -0.00004511
     atom    6 type  1   force =     0.00198618    0.00253022   -0.00004511
     atom    7 type  3   force =    -0.00422098    0.00263093   -0.00009620
     atom    8 type  3   force =     0.00422098   -0.00263093   -0.00009620
     atom    9 type  3   force =    -0.00422098   -0.00263093    0.00009620
     atom   10 type  3   force =     0.00422098    0.00263093    0.00009620
     atom   11 type  3   force =     0.00234630    0.00536352    0.00001175
     atom   12 type  3   force =    -0.00234630   -0.00536352    0.00001175
     atom   13 type  3   force =     0.00234630   -0.00536352   -0.00001175
     atom   14 type  3   force =    -0.00234630    0.00536352   -0.00001175
     atom   15 type  3   force =     0.00067930   -0.00211952   -0.00547946
     atom   16 type  3   force =    -0.00067930    0.00211952   -0.00547946
     atom   17 type  3   force =     0.00067930    0.00211952    0.00547946
     atom   18 type  3   force =    -0.00067930   -0.00211952    0.00547946
     atom   19 type  3   force =    -0.00079422    0.00214844    0.00549820
     atom   20 type  3   force =     0.00079422   -0.00214844    0.00549820
     atom   21 type  3   force =    -0.00079422   -0.00214844   -0.00549820
     atom   22 type  3   force =     0.00079422    0.00214844   -0.00549820

     Total force =     0.023649     Total SCF correction =     0.000001


     Computing stress (Cartesian axis) and pressure

          total   stress  (Ry/bohr**3)                   (kbar)     P=      -12.39
  -0.00003408   0.00000000   0.00000000           -5.01        0.00        0.00
   0.00000000  -0.00008114   0.00000000            0.00      -11.94        0.00
   0.00000000   0.00000000  -0.00013749            0.00        0.00      -20.23

     Energy error            =      2.3E-03 Ry
     Gradient error          =      5.5E-03 Ry/Bohr
     Cell gradient error     =      2.0E+01 kbar

     number of scf cycles    =   3
     number of bfgs steps    =   2

     enthalpy           old  =    -156.4580500157 Ry
     enthalpy           new  =    -156.4603877552 Ry

     CASE: enthalpy          _new < enthalpy          _old

     new trust radius        =       0.0595723843 bohr
     new conv_thr            =            1.0E-10 Ry

     new unit-cell volume =   1604.66932 a.u.^3 (   237.78746 Ang^3 )
     density =      2.33259 g/cm^3

CELL_PARAMETERS (alat= 13.19928345)
   0.996653653   0.000000000   0.000000000
   0.000000000   1.025512673   0.000000000
   0.000000000   0.000000000   0.682730320

ATOMIC_POSITIONS (crystal)
Ba               0.5000000000        0.5000000000        0.5000722128
Ba               0.0000000000        0.0000000000        0.9999277872
B                0.6301732198        0.2547705642        0.0000320939
B                0.3698267802        0.7452294358        0.0000320939
B                0.1301732198        0.2452294358        0.4999679061
B                0.8698267802        0.7547705642        0.4999679061
H                0.4564397206        0.2848659121        0.0002098548
H                0.5435602794        0.7151340879        0.0002098548
H                0.9564397206        0.2151340879        0.4997901452
H                0.0435602794        0.7848659121        0.4997901452
H                0.7213817707        0.4020631677        0.0000056467
H                0.2786182293        0.5979368323        0.0000056467
H                0.2213817707        0.0979368323        0.4999943533
H                0.7786182293        0.9020631677        0.4999943533
H                0.6692145869        0.1649088563        0.7891087833
H                0.3307854131        0.8350911437        0.7891087833
H                0.1692145869        0.3350911437        0.7108912167
H                0.8307854131        0.6649088563        0.7108912167
H                0.3307399004        0.8351074562        0.2109139984
H                0.6692600996        0.1648925438        0.2109139984
H                0.8307399004        0.6648925438        0.2890860016
H                0.1692600996        0.3351074562        0.2890860016



     Writing config-only to output data dir ./pwscf.save/ :
     XML data file
     NEW-OLD atomic charge density approx. for the potential

     total cpu time spent up to now is      471.5 secs

     Self-consistent Calculation

     iteration #  1     ecut=   100.00 Ry     beta= 0.70
     Davidson diagonalization with overlap
     ethr =  1.00E-06,  avg # of iterations =  4.0

     total cpu time spent up to now is      495.3 secs

     total energy              =    -156.46343782 Ry
     estimated scf accuracy    <       0.00030536 Ry

     iteration #  2     ecut=   100.00 Ry     beta= 0.70
     Davidson diagonalization with overlap
     ethr =  6.36E-07,  avg # of iterations =  2.0

     total cpu time spent up to now is      509.9 secs

     total energy              =    -156.46351707 Ry
     estimated scf accuracy    <       0.00004407 Ry

     iteration #  3     ecut=   100.00 Ry     beta= 0.70
     Davidson diagonalization with overlap
     ethr =  9.18E-08,  avg # of iterations =  2.0

     total cpu time spent up to now is      524.5 secs

     total energy              =    -156.46352417 Ry
     estimated scf accuracy    <       0.00000121 Ry

     iteration #  4     ecut=   100.00 Ry     beta= 0.70
     Davidson diagonalization with overlap
     ethr =  2.52E-09,  avg # of iterations =  5.3

     total cpu time spent up to now is      544.6 secs

     total energy              =    -156.46352470 Ry
     estimated scf accuracy    <       0.00000045 Ry

     iteration #  5     ecut=   100.00 Ry     beta= 0.70
     Davidson diagonalization with overlap
     ethr =  9.29E-10,  avg # of iterations =  2.7

     total cpu time spent up to now is      559.7 secs

     total energy              =    -156.46352485 Ry
     estimated scf accuracy    <       0.00000002 Ry

     iteration #  6     ecut=   100.00 Ry     beta= 0.70
     Davidson diagonalization with overlap
     ethr =  3.32E-11,  avg # of iterations =  5.1

     total cpu time spent up to now is      580.0 secs

     total energy              =    -156.46352486 Ry
     estimated scf accuracy    <          2.4E-10 Ry

     iteration #  7     ecut=   100.00 Ry     beta= 0.70
     Davidson diagonalization with overlap
     ethr =  4.97E-13,  avg # of iterations =  6.7

     total cpu time spent up to now is      608.2 secs

     End of self-consistent calculation

          k = 0.0000 0.0000 0.0000 ( 27937 PWs)   bands (ev):

   -24.8959 -24.8908 -10.3081 -10.2663 -10.1076 -10.0928 -10.0430  -9.9973
    -6.5378  -5.7196  -5.3080  -5.1885  -2.2105  -1.3364  -1.3098  -0.9689
    -0.8631  -0.8333  -0.7083  -0.6497  -0.3538  -0.0525  -0.0393   0.0004

          k = 0.0000 0.0000 0.3662 ( 27905 PWs)   bands (ev):

   -24.8909 -24.8873 -10.2419 -10.2221 -10.2151 -10.2002 -10.0979 -10.0914
    -6.1422  -5.5318  -5.4276  -5.3468  -1.8583  -1.6986  -1.4054  -1.1231
    -1.0339  -0.9569  -0.5901  -0.4271  -0.2829  -0.2150  -0.1460  -0.1173

          k = 0.0000 0.0000-0.7324 ( 27838 PWs)   bands (ev):

   -24.8848 -24.8848 -10.3810 -10.3809 -10.1478 -10.1478 -10.1088 -10.1088
    -5.5550  -5.5545  -5.5294  -5.5291  -1.7517  -1.7508  -1.5771  -1.5763
    -0.7162  -0.7140  -0.6544  -0.6541  -0.2854  -0.2854  -0.1640  -0.1614

          k = 0.0000 0.2438 0.0000 ( 27927 PWs)   bands (ev):

   -24.8951 -24.8915 -10.2841 -10.2426 -10.1420 -10.1189 -10.0362 -10.0040
    -6.3898  -5.6992  -5.4753  -5.2634  -1.9663  -1.4944  -1.3515  -0.8392
    -0.7783  -0.7526  -0.6515  -0.5593  -0.3768  -0.3496  -0.0863  -0.0757

          k = 0.0000 0.2438 0.3662 ( 27878 PWs)   bands (ev):

   -24.8904 -24.8878 -10.2636 -10.2306 -10.1889 -10.1801 -10.1067 -10.1012
    -6.0538  -5.5952  -5.4609  -5.3740  -1.7279  -1.7170  -1.5139  -1.0069
    -0.9643  -0.7950  -0.7174  -0.4165  -0.3378  -0.2473  -0.2003  -0.1578

          k = 0.0000 0.2438-0.7324 ( 27836 PWs)   bands (ev):

   -24.8848 -24.8848 -10.3936 -10.3935 -10.1340 -10.1340 -10.1071 -10.1071
    -5.7531  -5.7530  -5.3269  -5.3269  -1.8704  -1.8701  -1.4347  -1.4343
    -0.6645  -0.6622  -0.5891  -0.5886  -0.3275  -0.3271  -0.2527  -0.2503

          k = 0.0000-0.4876 0.0000 ( 27884 PWs)   bands (ev):

   -24.8933 -24.8933 -10.2220 -10.2220 -10.1780 -10.1780 -10.0201 -10.0201
    -6.0157  -6.0157  -5.4314  -5.4314  -1.6697  -1.6697  -1.0082  -1.0082
    -0.8308  -0.8308  -0.4601  -0.4601  -0.4502  -0.4502  -0.2015  -0.2015

          k = 0.0000-0.4876 0.3662 ( 27882 PWs)   bands (ev):

   -24.8891 -24.8891 -10.2595 -10.2595 -10.1554 -10.1554 -10.1220 -10.1220
    -5.8298  -5.8298  -5.4294  -5.4294  -1.7160  -1.7160  -1.2567  -1.2567
    -0.7800  -0.7800  -0.4868  -0.4868  -0.4569  -0.4569  -0.1786  -0.1786

          k = 0.0000-0.4876-0.7324 ( 27848 PWs)   bands (ev):

   -24.8848 -24.8848 -10.4048 -10.4048 -10.1235 -10.1235 -10.1034 -10.1034
    -5.8394  -5.8394  -5.2364  -5.2364  -1.9539  -1.9539  -1.2822  -1.2822
    -0.6502  -0.6502  -0.5032  -0.5032  -0.4890  -0.4890  -0.2454  -0.2454

          k = 0.2508 0.0000 0.0000 ( 27908 PWs)   bands (ev):

   -24.8951 -24.8915 -10.2800 -10.2480 -10.1377 -10.1258 -10.0362 -10.0039
    -6.3880  -5.7556  -5.3393  -5.3212  -2.0117  -1.2554  -1.2474  -1.1007
    -0.7772  -0.7086  -0.6568  -0.6403  -0.4288  -0.3312  -0.1246  -0.1031

          k = 0.2508 0.0000 0.3662 ( 27908 PWs)   bands (ev):

   -24.8904 -24.8878 -10.2561 -10.2415 -10.2012 -10.1675 -10.1147 -10.0947
    -6.0291  -5.5251  -5.4633  -5.4474  -1.8100  -1.6602  -1.5503  -1.0278
    -0.9696  -0.8009  -0.6362  -0.4935  -0.3720  -0.1874  -0.1864  -0.1215

          k = 0.2508 0.0000-0.7324 ( 27934 PWs)   bands (ev):

   -24.8848 -24.8848 -10.3953 -10.3953 -10.1353 -10.1353 -10.1067 -10.1067
    -5.6668  -5.6666  -5.4019  -5.4017  -2.0430  -2.0428  -1.3215  -1.3203
    -0.6707  -0.6707  -0.5442  -0.5427  -0.3626  -0.3614  -0.1638  -0.1627

          k = 0.2508 0.2438 0.0000 ( 27923 PWs)   bands (ev):

   -24.8946 -24.8920 -10.3008 -10.2145 -10.1857 -10.0941 -10.0314 -10.0086
    -6.2890  -5.7870  -5.4680  -5.3006  -1.8383  -1.4712  -1.2531  -0.8579
    -0.8493  -0.7851  -0.5666  -0.5369  -0.4557  -0.3940  -0.2231  -0.0973

          k = 0.2508 0.2438 0.3662 ( 27899 PWs)   bands (ev):

   -24.8900 -24.8882 -10.2561 -10.2370 -10.2209 -10.1503 -10.1224 -10.0910
    -5.9600  -5.5913  -5.5037  -5.4271  -1.7905  -1.6501  -1.5588  -1.0773
    -0.8569  -0.7761  -0.6240  -0.4408  -0.4237  -0.2743  -0.1534  -0.1328

          k = 0.2508 0.2438-0.7324 ( 27888 PWs)   bands (ev):

   -24.8848 -24.8848 -10.4034 -10.3830 -10.1511 -10.1214 -10.1103 -10.1060
    -5.7838  -5.6094  -5.4569  -5.2807  -2.0724  -1.9526  -1.4344  -1.3388
    -0.7159  -0.6382  -0.4886  -0.4473  -0.4019  -0.2846  -0.2420  -0.1436

          k = 0.2508-0.4876 0.0000 ( 27924 PWs)   bands (ev):

   -24.8933 -24.8933 -10.2794 -10.2794 -10.1201 -10.1201 -10.0199 -10.0199
    -6.0326  -6.0326  -5.4090  -5.4090  -1.6112  -1.6112  -1.0511  -1.0511
    -0.8651  -0.8651  -0.4856  -0.4856  -0.4146  -0.4146  -0.2084  -0.2084

          k = 0.2508-0.4876 0.3662 ( 27906 PWs)   bands (ev):

   -24.8891 -24.8891 -10.2540 -10.2540 -10.1863 -10.1863 -10.0995 -10.0995
    -5.7861  -5.7861  -5.4634  -5.4634  -1.7443  -1.7443  -1.3211  -1.3211
    -0.7501  -0.7501  -0.5097  -0.5097  -0.3477  -0.3477  -0.1781  -0.1781

          k = 0.2508-0.4876-0.7324 ( 27848 PWs)   bands (ev):

   -24.8848 -24.8848 -10.3922 -10.3922 -10.1375 -10.1375 -10.1082 -10.1082
    -5.7583  -5.7583  -5.3039  -5.3039  -1.9889  -1.9889  -1.4468  -1.4468
    -0.6338  -0.6338  -0.4696  -0.4696  -0.3334  -0.3334  -0.1850  -0.1850

          k =-0.5017 0.0000 0.0000 ( 27930 PWs)   bands (ev):

   -24.8933 -24.8933 -10.2135 -10.2135 -10.1904 -10.1904 -10.0200 -10.0200
    -6.0304  -6.0304  -5.3941  -5.3941  -1.6232  -1.6232  -0.8991  -0.8991
    -0.7076  -0.7076  -0.6469  -0.6469  -0.5911  -0.5911  -0.2565  -0.2565

          k =-0.5017 0.0000 0.3662 ( 27904 PWs)   bands (ev):

   -24.8891 -24.8891 -10.2605 -10.2605 -10.1650 -10.1650 -10.1159 -10.1159
    -5.7534  -5.7534  -5.4872  -5.4872  -1.7560  -1.7560  -1.2943  -1.2943
    -0.7604  -0.7604  -0.5995  -0.5995  -0.3144  -0.3144  -0.1635  -0.1635

          k =-0.5017 0.0000-0.7324 ( 27940 PWs)   bands (ev):

   -24.8848 -24.8848 -10.4083 -10.4083 -10.1254 -10.1254 -10.1034 -10.1034
    -5.7154  -5.7154  -5.3368  -5.3368  -2.2057  -2.2057  -1.1291  -1.1291
    -0.6485  -0.6485  -0.6457  -0.6457  -0.2294  -0.2294  -0.1986  -0.1986

          k =-0.5017 0.2438 0.0000 ( 27924 PWs)   bands (ev):

   -24.8933 -24.8933 -10.2792 -10.2792 -10.1222 -10.1222 -10.0199 -10.0199
    -6.0397  -6.0397  -5.3905  -5.3905  -1.5911  -1.5911  -0.9853  -0.9853
    -0.8293  -0.8293  -0.6099  -0.6099  -0.4592  -0.4592  -0.2126  -0.2126

          k =-0.5017 0.2438 0.3662 ( 27890 PWs)   bands (ev):

   -24.8891 -24.8891 -10.2547 -10.2547 -10.1886 -10.1886 -10.0987 -10.0987
    -5.7427  -5.7427  -5.4975  -5.4975  -1.7603  -1.7603  -1.3542  -1.3542
    -0.7130  -0.7130  -0.5598  -0.5598  -0.2493  -0.2493  -0.2221  -0.2221

          k =-0.5017 0.2438-0.7324 ( 27916 PWs)   bands (ev):

   -24.8848 -24.8848 -10.3941 -10.3941 -10.1379 -10.1379 -10.1086 -10.1086
    -5.6804  -5.6804  -5.3697  -5.3697  -2.1361  -2.1361  -1.3476  -1.3476
    -0.5865  -0.5865  -0.5746  -0.5746  -0.2816  -0.2816  -0.0964  -0.0964

          k =-0.5017-0.4876 0.0000 ( 27892 PWs)   bands (ev):

   -24.8933 -24.8933 -10.3099 -10.3099 -10.0889 -10.0889 -10.0197 -10.0197
    -6.0489  -6.0489  -5.3868  -5.3868  -1.5452  -1.5452  -1.1016  -1.1016
    -0.8947  -0.8947  -0.5061  -0.5061  -0.3836  -0.3836  -0.2207  -0.2207

          k =-0.5017-0.4876 0.3662 ( 27920 PWs)   bands (ev):

   -24.8891 -24.8891 -10.2459 -10.2459 -10.2090 -10.2090 -10.0878 -10.0878
    -5.7311  -5.7311  -5.5085  -5.5085  -1.7536  -1.7536  -1.4278  -1.4278
    -0.6764  -0.6764  -0.4116  -0.4116  -0.3573  -0.3573  -0.2021  -0.2021

          k =-0.5017-0.4876-0.7324 ( 27880 PWs)   bands (ev):

   -24.8848 -24.8848 -10.3778 -10.3778 -10.1545 -10.1545 -10.1117 -10.1117
    -5.6360  -5.6360  -5.4122  -5.4122  -2.0188  -2.0188  -1.5852  -1.5852
    -0.5794  -0.5794  -0.3842  -0.3842  -0.3571  -0.3571  -0.0660  -0.0660

     highest occupied level (ev):     0.0004

!    total energy              =    -156.46352486 Ry
     estimated scf accuracy    <          1.6E-11 Ry

     The total energy is the sum of the following terms:
     one-electron contribution =     -33.67215003 Ry
     hartree contribution      =      29.73737632 Ry
     xc contribution           =     -49.01632962 Ry
     ewald contribution        =    -103.51242154 Ry

     convergence has been achieved in   7 iterations

     Forces acting on atoms (cartesian axes, Ry/au):

     atom    1 type  2   force =     0.00000000    0.00000000   -0.00001040
     atom    2 type  2   force =     0.00000000    0.00000000    0.00001040
     atom    3 type  1   force =    -0.00129157    0.00150625    0.00003646
     atom    4 type  1   force =     0.00129157   -0.00150625    0.00003646
     atom    5 type  1   force =    -0.00129157   -0.00150625   -0.00003646
     atom    6 type  1   force =     0.00129157    0.00150625   -0.00003646
     atom    7 type  3   force =    -0.00300428    0.00243252   -0.00007492
     atom    8 type  3   force =     0.00300428   -0.00243252   -0.00007492
     atom    9 type  3   force =    -0.00300428   -0.00243252    0.00007492
     atom   10 type  3   force =     0.00300428    0.00243252    0.00007492
     atom   11 type  3   force =     0.00148176    0.00459681    0.00001186
     atom   12 type  3   force =    -0.00148176   -0.00459681    0.00001186
     atom   13 type  3   force =     0.00148176   -0.00459681   -0.00001186
     atom   14 type  3   force =    -0.00148176    0.00459681   -0.00001186
     atom   15 type  3   force =     0.00011489   -0.00163226   -0.00569027
     atom   16 type  3   force =    -0.00011489    0.00163226   -0.00569027
     atom   17 type  3   force =     0.00011489    0.00163226    0.00569027
     atom   18 type  3   force =    -0.00011489   -0.00163226    0.00569027
     atom   19 type  3   force =    -0.00019674    0.00164520    0.00569628
     atom   20 type  3   force =     0.00019674   -0.00164520    0.00569628
     atom   21 type  3   force =    -0.00019674   -0.00164520   -0.00569628
     atom   22 type  3   force =     0.00019674    0.00164520   -0.00569628

     Total force =     0.021210     Total SCF correction =     0.000001


     Computing stress (Cartesian axis) and pressure

          total   stress  (Ry/bohr**3)                   (kbar)     P=      -10.45
  -0.00003204   0.00000000   0.00000000           -4.71        0.00        0.00
   0.00000000  -0.00007175   0.00000000            0.00      -10.55        0.00
   0.00000000   0.00000000  -0.00010926            0.00        0.00      -16.07

     Energy error            =      3.1E-03 Ry
     Gradient error          =      5.7E-03 Ry/Bohr
     Cell gradient error     =      1.6E+01 kbar

     number of scf cycles    =   4
     number of bfgs steps    =   3

     enthalpy           old  =    -156.4603877552 Ry
     enthalpy           new  =    -156.4635248632 Ry

     CASE: enthalpy          _new < enthalpy          _old

     new trust radius        =       0.0894302072 bohr
     new conv_thr            =            1.0E-10 Ry

     new unit-cell volume =   1572.19279 a.u.^3 (   232.97494 Ang^3 )
     density =      2.38078 g/cm^3

CELL_PARAMETERS (alat= 13.19928345)
   0.994025813   0.000000000   0.000000000
   0.000000000   1.018785970   0.000000000
   0.000000000   0.000000000   0.675109343

ATOMIC_POSITIONS (crystal)
Ba               0.5000000000        0.5000000000        0.5000673822
Ba               0.0000000000        0.0000000000        0.9999326178
B                0.6297770588        0.2552375822        0.0000431197
B                0.3702229412        0.7447624178        0.0000431197
B                0.1297770588        0.2447624178        0.4999568803
B                0.8702229412        0.7552375822        0.4999568803
H                0.4553793554        0.2855044576        0.0001770035
H                0.5446206446        0.7144955424        0.0001770035
H                0.9553793554        0.2144955424        0.4998229965
H                0.0446206446        0.7855044576        0.4998229965
H                0.7219436069        0.4033521919        0.0000100469
H                0.2780563931        0.5966478081        0.0000100469
H                0.2219436069        0.0966478081        0.4999899531
H                0.7780563931        0.9033521919        0.4999899531
H                0.6693424899        0.1644451229        0.7871885248
H                0.3306575101        0.8355548771        0.7871885248
H                0.1693424899        0.3355548771        0.7128114752
H                0.8306575101        0.6644451229        0.7128114752
H                0.3305841301        0.8355789871        0.2128441414
H                0.6694158699        0.1644210129        0.2128441414
H                0.8305841301        0.6644210129        0.2871558586
H                0.1694158699        0.3355789871        0.2871558586



     Writing config-only to output data dir ./pwscf.save/ :
     XML data file
     NEW-OLD atomic charge density approx. for the potential

     total cpu time spent up to now is      622.7 secs

     Self-consistent Calculation

     iteration #  1     ecut=   100.00 Ry     beta= 0.70
     Davidson diagonalization with overlap
     ethr =  1.00E-06,  avg # of iterations =  5.0

     total cpu time spent up to now is      649.5 secs

     total energy              =    -156.46703275 Ry
     estimated scf accuracy    <       0.00076114 Ry

     iteration #  2     ecut=   100.00 Ry     beta= 0.70
     Davidson diagonalization with overlap
     ethr =  1.59E-06,  avg # of iterations =  2.0

     total cpu time spent up to now is      664.1 secs

     total energy              =    -156.46723272 Ry
     estimated scf accuracy    <       0.00012630 Ry

     iteration #  3     ecut=   100.00 Ry     beta= 0.70
     Davidson diagonalization with overlap
     ethr =  2.63E-07,  avg # of iterations =  2.0

     total cpu time spent up to now is      678.8 secs

     total energy              =    -156.46725273 Ry
     estimated scf accuracy    <       0.00000306 Ry

     iteration #  4     ecut=   100.00 Ry     beta= 0.70
     Davidson diagonalization with overlap
     ethr =  6.37E-09,  avg # of iterations =  5.1

     total cpu time spent up to now is      697.9 secs

     total energy              =    -156.46725396 Ry
     estimated scf accuracy    <       0.00000108 Ry

     iteration #  5     ecut=   100.00 Ry     beta= 0.70
     Davidson diagonalization with overlap
     ethr =  2.24E-09,  avg # of iterations =  3.2

     total cpu time spent up to now is      713.3 secs

     total energy              =    -156.46725432 Ry
     estimated scf accuracy    <       0.00000002 Ry

     iteration #  6     ecut=   100.00 Ry     beta= 0.70
     Davidson diagonalization with overlap
     ethr =  4.86E-11,  avg # of iterations =  5.6

     total cpu time spent up to now is      735.9 secs

     total energy              =    -156.46725435 Ry
     estimated scf accuracy    <          6.7E-10 Ry

     iteration #  7     ecut=   100.00 Ry     beta= 0.70
     Davidson diagonalization with overlap
     ethr =  1.39E-12,  avg # of iterations =  5.9

     total cpu time spent up to now is      760.6 secs

     End of self-consistent calculation

          k = 0.0000 0.0000 0.0000 ( 27937 PWs)   bands (ev):

   -24.6798 -24.6740 -10.1320 -10.0853  -9.9108  -9.8920  -9.8408  -9.7913
    -6.4604  -5.6112  -5.1528  -5.0405  -2.1579  -1.2524  -1.2374  -0.8777
    -0.7726  -0.6973  -0.5771  -0.4929  -0.2035   0.0667   0.0926   0.1158

          k = 0.0000 0.0000 0.3703 ( 27905 PWs)   bands (ev):

   -24.6739 -24.6699 -10.0572 -10.0462 -10.0271 -10.0239  -9.8983  -9.8893
    -6.0297  -5.3958  -5.2900  -5.2147  -1.7799  -1.6301  -1.3307  -1.0430
    -0.9204  -0.8295  -0.4665  -0.2887  -0.1467  -0.0991  -0.0306   0.0154

          k = 0.0000 0.0000-0.7406 ( 27838 PWs)   bands (ev):

   -24.6668 -24.6668 -10.2267 -10.2266  -9.9508  -9.9508  -9.9081  -9.9080
    -5.4124  -5.4121  -5.4032  -5.4028  -1.6901  -1.6900  -1.4883  -1.4879
    -0.5846  -0.5825  -0.5508  -0.5508  -0.1655  -0.1655  -0.0248  -0.0233

          k = 0.0000 0.2454 0.0000 ( 27927 PWs)   bands (ev):

   -24.6789 -24.6749 -10.1062 -10.0593  -9.9491  -9.9210  -9.8335  -9.7985
    -6.3039  -5.5891  -5.3316  -5.1200  -1.9036  -1.4181  -1.2763  -0.7035
    -0.6522  -0.6411  -0.5521  -0.4089  -0.2312  -0.2262   0.0257   0.0432

          k = 0.0000 0.2454 0.3703 ( 27878 PWs)   bands (ev):

   -24.6733 -24.6704 -10.0865 -10.0531 -10.0002  -9.9946  -9.9067  -9.9038
    -5.9386  -5.4670  -5.3206  -5.2411  -1.6483  -1.6480  -1.4409  -0.8923
    -0.8638  -0.6719  -0.6046  -0.2811  -0.2090  -0.1205  -0.0763  -0.0370

          k = 0.0000 0.2454-0.7406 ( 27836 PWs)   bands (ev):

   -24.6668 -24.6668 -10.2392 -10.2391  -9.9363  -9.9363  -9.9065  -9.9065
    -5.6391  -5.6391  -5.1704  -5.1704  -1.8130  -1.8130  -1.3370  -1.3367
    -0.5431  -0.5413  -0.4832  -0.4830  -0.2014  -0.2014  -0.1184  -0.1170

          k = 0.0000-0.4908 0.0000 ( 27884 PWs)   bands (ev):

   -24.6769 -24.6769 -10.0389 -10.0389  -9.9865  -9.9865  -9.8160  -9.8160
    -5.9107  -5.9107  -5.2972  -5.2972  -1.6005  -1.6005  -0.9129  -0.9129
    -0.6947  -0.6947  -0.3450  -0.3450  -0.2998  -0.2998  -0.0964  -0.0964

          k = 0.0000-0.4908 0.3703 ( 27882 PWs)   bands (ev):

   -24.6719 -24.6719 -10.0839 -10.0839  -9.9621  -9.9621  -9.9281  -9.9281
    -5.7084  -5.7084  -5.2932  -5.2932  -1.6457  -1.6457  -1.1621  -1.1621
    -0.6652  -0.6652  -0.3562  -0.3562  -0.3336  -0.3336  -0.0565  -0.0565

          k = 0.0000-0.4908-0.7406 ( 27848 PWs)   bands (ev):

   -24.6668 -24.6668 -10.2505 -10.2505  -9.9248  -9.9248  -9.9031  -9.9031
    -5.7338  -5.7338  -5.0698  -5.0698  -1.8998  -1.8998  -1.1727  -1.1727
    -0.5393  -0.5393  -0.3983  -0.3983  -0.3730  -0.3730  -0.1006  -0.1006

          k = 0.2515 0.0000 0.0000 ( 27908 PWs)   bands (ev):

   -24.6789 -24.6749 -10.1013 -10.0652  -9.9441  -9.9290  -9.8335  -9.7985
    -6.3038  -5.6477  -5.1878  -5.1783  -1.9528  -1.1759  -1.1598  -1.0236
    -0.6411  -0.5749  -0.5413  -0.5023  -0.2799  -0.2222  -0.0069   0.0271

          k = 0.2515 0.0000 0.3703 ( 27908 PWs)   bands (ev):

   -24.6733 -24.6704 -10.0794 -10.0625 -10.0174  -9.9785  -9.9173  -9.8949
    -5.9131  -5.3884  -5.3349  -5.3111  -1.7360  -1.5809  -1.4737  -0.9152
    -0.8766  -0.6819  -0.5237  -0.3704  -0.2324  -0.0725  -0.0572   0.0118

          k = 0.2515 0.0000-0.7406 ( 27934 PWs)   bands (ev):

   -24.6668 -24.6668 -10.2411 -10.2411  -9.9379  -9.9379  -9.9059  -9.9059
    -5.5501  -5.5499  -5.2482  -5.2479  -1.9850  -1.9849  -1.2196  -1.2190
    -0.5526  -0.5525  -0.4322  -0.4312  -0.2422  -0.2412  -0.0307  -0.0301

          k = 0.2515 0.2454 0.0000 ( 27923 PWs)   bands (ev):

   -24.6783 -24.6755 -10.1241 -10.0301  -9.9954  -9.8944  -9.8283  -9.8035
    -6.2007  -5.6800  -5.3280  -5.1531  -1.7723  -1.3951  -1.1724  -0.7673
    -0.7162  -0.6475  -0.4582  -0.3867  -0.3490  -0.2410  -0.1083   0.0220

          k = 0.2515 0.2454 0.3703 ( 27899 PWs)   bands (ev):

   -24.6729 -24.6709 -10.0797 -10.0522 -10.0444  -9.9584  -9.9279  -9.8895
    -5.8416  -5.4631  -5.3668  -5.2940  -1.7177  -1.5753  -1.4738  -0.9694
    -0.7624  -0.6525  -0.5003  -0.3141  -0.3036  -0.1485  -0.0193  -0.0117

          k = 0.2515 0.2454-0.7406 ( 27888 PWs)   bands (ev):

   -24.6668 -24.6668 -10.2491 -10.2287  -9.9543  -9.9233  -9.9098  -9.9053
    -5.6759  -5.4896  -5.3063  -5.1165  -2.0170  -1.8900  -1.3413  -1.2276
    -0.6098  -0.5324  -0.3553  -0.3263  -0.2803  -0.1683  -0.1200  -0.0066

          k = 0.2515-0.4908 0.0000 ( 27924 PWs)   bands (ev):

   -24.6769 -24.6769 -10.1008 -10.1008  -9.9233  -9.9233  -9.8158  -9.8158
    -5.9336  -5.9336  -5.2683  -5.2683  -1.5398  -1.5398  -0.9573  -0.9573
    -0.7319  -0.7319  -0.3797  -0.3797  -0.2606  -0.2606  -0.0966  -0.0966

          k = 0.2515-0.4908 0.3703 ( 27906 PWs)   bands (ev):

   -24.6719 -24.6719 -10.0760 -10.0760 -10.0011 -10.0011  -9.9001  -9.9001
    -5.6625  -5.6625  -5.3292  -5.3292  -1.6720  -1.6720  -1.2236  -1.2236
    -0.6363  -0.6363  -0.3908  -0.3908  -0.2144  -0.2144  -0.0573  -0.0573

          k = 0.2515-0.4908-0.7406 ( 27848 PWs)   bands (ev):

   -24.6668 -24.6668 -10.2376 -10.2376  -9.9401  -9.9401  -9.9079  -9.9079
    -5.6478  -5.6478  -5.1422  -5.1422  -1.9305  -1.9305  -1.3440  -1.3440
    -0.5189  -0.5189  -0.3607  -0.3607  -0.2071  -0.2071  -0.0534  -0.0534

          k =-0.5030 0.0000 0.0000 ( 27930 PWs)   bands (ev):

   -24.6769 -24.6769 -10.0290 -10.0290 -10.0004 -10.0004  -9.8159  -9.8159
    -5.9317  -5.9317  -5.2505  -5.2505  -1.5542  -1.5542  -0.8051  -0.8051
    -0.5696  -0.5696  -0.5565  -0.5565  -0.4430  -0.4430  -0.1300  -0.1300

          k =-0.5030 0.0000 0.3703 ( 27904 PWs)   bands (ev):

   -24.6719 -24.6719 -10.0850 -10.0850  -9.9732  -9.9732  -9.9207  -9.9207
    -5.6294  -5.6294  -5.3530  -5.3530  -1.6800  -1.6800  -1.2014  -1.2014
    -0.6413  -0.6413  -0.4943  -0.4943  -0.1854  -0.1854  -0.0310  -0.0310

          k =-0.5030 0.0000-0.7406 ( 27940 PWs)   bands (ev):

   -24.6668 -24.6668 -10.2543 -10.2543  -9.9274  -9.9274  -9.9025  -9.9025
    -5.6061  -5.6061  -5.1738  -5.1738  -2.1514  -2.1514  -1.0126  -1.0126
    -0.5417  -0.5417  -0.5299  -0.5299  -0.1008  -0.1008  -0.0789  -0.0789

          k =-0.5030 0.2454 0.0000 ( 27924 PWs)   bands (ev):

   -24.6769 -24.6769 -10.1004 -10.1004  -9.9257  -9.9257  -9.8158  -9.8158
    -5.9436  -5.9436  -5.2453  -5.2453  -1.5193  -1.5193  -0.8930  -0.8930
    -0.6956  -0.6956  -0.5148  -0.5148  -0.3060  -0.3060  -0.0913  -0.0913

          k =-0.5030 0.2454 0.3703 ( 27890 PWs)   bands (ev):

   -24.6719 -24.6719 -10.0767 -10.0767 -10.0037 -10.0037  -9.8992  -9.8992
    -5.6174  -5.6174  -5.3646  -5.3646  -1.6853  -1.6853  -1.2584  -1.2584
    -0.5923  -0.5923  -0.4525  -0.4525  -0.1232  -0.1232  -0.0912  -0.0912

          k =-0.5030 0.2454-0.7406 ( 27916 PWs)   bands (ev):

   -24.6668 -24.6668 -10.2396 -10.2396  -9.9408  -9.9408  -9.9080  -9.9080
    -5.5684  -5.5684  -5.2096  -5.2096  -2.0779  -2.0779  -1.2411  -1.2411
    -0.4749  -0.4749  -0.4541  -0.4541  -0.1664  -0.1664   0.0355   0.0355

          k =-0.5030-0.4908 0.0000 ( 27892 PWs)   bands (ev):

   -24.6769 -24.6769 -10.1343 -10.1343  -9.8886  -9.8886  -9.8156  -9.8156
    -5.9554  -5.9554  -5.2402  -5.2402  -1.4707  -1.4707  -1.0108  -1.0108
[...]
   0.000000000   0.000000000   0.662122864

ATOMIC_POSITIONS (crystal)
Ba               0.5000000000        0.5000000000        0.5000555542
Ba               0.0000000000        0.0000000000        0.9999444458
B                0.6102535329        0.2392401522       -0.0000137817
B                0.3897464671        0.7607598478       -0.0000137817
B                0.1102535329        0.2607598478        0.5000137817
B                0.8897464671        0.7392401522        0.5000137817
H                0.4340913585        0.2922725223        0.0002737969
H                0.5659086415        0.7077274777        0.0002737969
H                0.9340913585        0.2077274777        0.4997262031
H                0.0659086415        0.7922725223        0.4997262031
H                0.7221194898        0.3835816292        0.0001941857
H                0.2778805102        0.6164183708        0.0001941857
H                0.2221194898        0.1164183708        0.4998058143
H                0.7778805102        0.8835816292        0.4998058143
H                0.6391392295        0.1420131577        0.7805172130
H                0.3608607705        0.8579868423        0.7805172130
H                0.1391392295        0.3579868423        0.7194827870
H                0.8608607705        0.6420131577        0.7194827870
H                0.3604968666        0.8578840290        0.2194041009
H                0.6395031334        0.1421159710        0.2194041009
H                0.8604968666        0.6421159710        0.2805958991
H                0.1395031334        0.3578840290        0.2805958991



     Writing config-only to output data dir ./pwscf.save/ :
     XML data file
     NEW-OLD atomic charge density approx. for the potential

     total cpu time spent up to now is     7387.8 secs

     Self-consistent Calculation

     iteration #  1     ecut=   100.00 Ry     beta= 0.70
     Davidson diagonalization with overlap
     ethr =  1.00E-06,  avg # of iterations =  2.2

     Threshold (ethr) on eigenvalues was too large:
     Diagonalizing with lowered threshold

     Davidson diagonalization with overlap
     ethr =  2.47E-08,  avg # of iterations =  2.9

     total cpu time spent up to now is     7418.0 secs

     total energy              =    -156.47491232 Ry
     estimated scf accuracy    <       0.00001517 Ry

     iteration #  2     ecut=   100.00 Ry     beta= 0.70
     Davidson diagonalization with overlap
     ethr =  3.16E-08,  avg # of iterations =  2.0

     total cpu time spent up to now is     7432.6 secs

     total energy              =    -156.47491394 Ry
     estimated scf accuracy    <       0.00000130 Ry

     iteration #  3     ecut=   100.00 Ry     beta= 0.70
     Davidson diagonalization with overlap
     ethr =  2.71E-09,  avg # of iterations =  2.0

     total cpu time spent up to now is     7447.2 secs

     total energy              =    -156.47491414 Ry
     estimated scf accuracy    <       0.00000009 Ry

     iteration #  4     ecut=   100.00 Ry     beta= 0.70
     Davidson diagonalization with overlap
     ethr =  1.77E-10,  avg # of iterations =  3.0

     total cpu time spent up to now is     7462.2 secs

     total energy              =    -156.47491416 Ry
     estimated scf accuracy    <          2.5E-09 Ry

     iteration #  5     ecut=   100.00 Ry     beta= 0.70
     Davidson diagonalization with overlap
     ethr =  5.11E-12,  avg # of iterations =  6.7

     total cpu time spent up to now is     7489.4 secs

     total energy              =    -156.47491416 Ry
     estimated scf accuracy    <          4.7E-10 Ry

     iteration #  6     ecut=   100.00 Ry     beta= 0.70
     Davidson diagonalization with overlap
     ethr =  9.74E-13,  avg # of iterations =  3.0

     total cpu time spent up to now is     7505.8 secs

     total energy              =    -156.47491416 Ry
     estimated scf accuracy    <          3.7E-11 Ry

     iteration #  7     ecut=   100.00 Ry     beta= 0.70
     Davidson diagonalization with overlap
     ethr =  1.00E-13,  avg # of iterations =  4.3

     total cpu time spent up to now is     7523.3 secs

     total energy              =    -156.47491416 Ry
     estimated scf accuracy    <          1.1E-12 Ry

     iteration #  8     ecut=   100.00 Ry     beta= 0.70
     Davidson diagonalization with overlap
     ethr =  1.00E-13,  avg # of iterations =  1.0

     total cpu time spent up to now is     7534.7 secs

     End of self-consistent calculation

          k = 0.0000 0.0000 0.0000 ( 27937 PWs)   bands (ev):

   -23.7765 -23.7668  -9.3479  -9.2547  -9.0476  -9.0064  -8.9776  -8.9101
    -5.9842  -5.0147  -4.3017  -4.1554  -1.6844  -0.7599  -0.6807  -0.3374
     0.0498   0.0715   0.1212   0.2397   0.4081   0.8280   0.8435   0.8855

          k = 0.0000 0.0000 0.3776 ( 27905 PWs)   bands (ev):

   -23.7682 -23.7613  -9.2470  -9.2465  -9.2212  -9.1838  -9.0284  -9.0058
    -5.4614  -4.7402  -4.4852  -4.3938  -1.2909  -1.0295  -0.5726  -0.5194
    -0.3696  -0.2467   0.1276   0.4226   0.6181   0.6610   0.7388   0.8889

          k = 0.0000 0.0000-0.7551 ( 27838 PWs)   bands (ev):

   -23.7578 -23.7578  -9.4772  -9.4769  -9.0939  -9.0939  -9.0380  -9.0380
    -4.7278  -4.7269  -4.6542  -4.6534  -1.0532  -1.0497  -1.0404  -1.0353
     0.0346   0.0397   0.1207   0.1239   0.7052   0.7063   0.7166   0.7225

          k = 0.0000 0.2550 0.0000 ( 27927 PWs)   bands (ev):

   -23.7750 -23.7682  -9.3171  -9.2220  -9.1057  -9.0444  -8.9675  -8.9198
    -5.7760  -4.9195  -4.6012  -4.2918  -1.3094  -0.8709  -0.8368  -0.0489
    -0.0318  -0.0115   0.2883   0.4132   0.4937   0.5024   0.7377   0.8144

          k = 0.0000 0.2550 0.3776 ( 27878 PWs)   bands (ev):

   -23.7672 -23.7623  -9.2957  -9.2543  -9.1679  -9.1536  -9.0386  -9.0294
    -5.3532  -4.8178  -4.5281  -4.4344  -1.0968  -1.0544  -0.8597  -0.2761
    -0.2311  -0.0366  -0.0214   0.4764   0.5501   0.6018   0.7063   0.7644

          k = 0.0000 0.2550-0.7551 ( 27836 PWs)   bands (ev):

   -23.7578 -23.7578  -9.4916  -9.4914  -9.0738  -9.0738  -9.0371  -9.0371
    -5.0290  -5.0290  -4.3404  -4.3404  -1.1785  -1.1767  -0.8564  -0.8519
     0.1139   0.1162   0.1611   0.1637   0.5244   0.5295   0.7133   0.7136

          k = 0.0000-0.5100 0.0000 ( 27884 PWs)   bands (ev):

   -23.7716 -23.7716  -9.2293  -9.2293  -9.1312  -9.1312  -8.9434  -8.9434
    -5.2572  -5.2572  -4.5924  -4.5924  -0.9959  -0.9959  -0.3593  -0.3593
    -0.1153  -0.1153   0.4059   0.4059   0.5407   0.5407   0.6658   0.6658

          k = 0.0000-0.5100 0.3776 ( 27882 PWs)   bands (ev):

   -23.7647 -23.7647  -9.2952  -9.2952  -9.1068  -9.1068  -9.0712  -9.0712
    -5.0839  -5.0839  -4.5079  -4.5079  -1.0386  -1.0386  -0.6218  -0.6218
     0.0183   0.0183   0.3059   0.3059   0.4628   0.4628   0.6812   0.6812

          k = 0.0000-0.5100-0.7551 ( 27848 PWs)   bands (ev):

   -23.7578 -23.7578  -9.5048  -9.5048  -9.0569  -9.0569  -9.0341  -9.0341
    -5.1656  -5.1656  -4.1917  -4.1917  -1.2713  -1.2713  -0.5990  -0.5990
     0.0344   0.0344   0.2382   0.2382   0.3282   0.3282   0.7505   0.7505

          k = 0.2615 0.0000 0.0000 ( 27908 PWs)   bands (ev):

   -23.7750 -23.7682  -9.3066  -9.2351  -9.0943  -9.0630  -8.9675  -8.9198
    -5.7848  -5.0428  -4.3457  -4.3185  -1.4880  -0.6126  -0.5933  -0.4643
     0.0933   0.1318   0.1971   0.2647   0.3647   0.3917   0.7914   0.8283

          k = 0.2615 0.0000 0.3776 ( 27908 PWs)   bands (ev):

   -23.7671 -23.7623  -9.2862  -9.2670  -9.1984  -9.1280  -9.0559  -9.0165
    -5.3070  -4.7213  -4.5296  -4.5203  -1.2611  -1.0122  -0.8657  -0.3267
    -0.3112  -0.0296   0.2015   0.3399   0.4825   0.6132   0.8101   0.8391

          k = 0.2615 0.0000-0.7551 ( 27934 PWs)   bands (ev):

   -23.7578 -23.7578  -9.4968  -9.4966  -9.0790  -9.0789  -9.0345  -9.0344
    -4.8213  -4.8208  -4.5279  -4.5272  -1.5333  -1.5325  -0.5817  -0.5815
     0.0301   0.0334   0.3726   0.3754   0.5019   0.5029   0.7497   0.7543

          k = 0.2615 0.2550 0.0000 ( 27923 PWs)   bands (ev):

   -23.7740 -23.7692  -9.3366  -9.2092  -9.1510  -9.0134  -8.9602  -8.9264
    -5.6383  -4.9994  -4.6004  -4.3504  -1.1902  -0.8453  -0.6279  -0.1583
    -0.0878  -0.0376   0.2742   0.4229   0.4392   0.5211   0.5918   0.7432

          k = 0.2615 0.2550 0.3776 ( 27899 PWs)   bands (ev):

   -23.7664 -23.7630  -9.2889  -9.2462  -9.2389  -9.1063  -9.0680  -9.0091
    -5.2163  -4.7634  -4.6172  -4.5139  -1.2236  -0.9785  -0.8800  -0.3127
    -0.1520   0.0294   0.1338   0.3601   0.4605   0.5752   0.7299   0.8168

          k = 0.2615 0.2550-0.7551 ( 27888 PWs)   bands (ev):

   -23.7578 -23.7578  -9.5041  -9.4789  -9.1024  -9.0588  -9.0427  -9.0349
    -5.0410  -4.8484  -4.4920  -4.2940  -1.5089  -1.4244  -0.6543  -0.5413
    -0.0196  -0.0161   0.3425   0.4108   0.5142   0.5621   0.6988   0.7294

          k = 0.2615-0.5100 0.0000 ( 27924 PWs)   bands (ev):

   -23.7716 -23.7716  -9.3099  -9.3099  -9.0508  -9.0508  -8.9430  -8.9430
    -5.2639  -5.2639  -4.5740  -4.5740  -0.9006  -0.9006  -0.3694  -0.3694
    -0.1554  -0.1554   0.3347   0.3347   0.5805   0.5805   0.6000   0.6000

          k = 0.2615-0.5100 0.3776 ( 27906 PWs)   bands (ev):

   -23.7647 -23.7647  -9.2830  -9.2830  -9.1742  -9.1742  -9.0242  -9.0242
    -4.9911  -4.9911  -4.5800  -4.5800  -1.1312  -1.1312  -0.5429  -0.5429
    -0.0074  -0.0074   0.3249   0.3249   0.4734   0.4734   0.7016   0.7016

          k = 0.2615-0.5100-0.7551 ( 27848 PWs)   bands (ev):

   -23.7578 -23.7578  -9.4874  -9.4874  -9.0831  -9.0831  -9.0412  -9.0412
    -5.0505  -5.0505  -4.2760  -4.2760  -1.3930  -1.3930  -0.6609  -0.6609
     0.0986   0.0986   0.2292   0.2292   0.5552   0.5552   0.7172   0.7172

          k =-0.5231 0.0000 0.0000 ( 27930 PWs)   bands (ev):

   -23.7716 -23.7716  -9.2047  -9.2047  -9.1653  -9.1653  -8.9434  -8.9434
    -5.3394  -5.3394  -4.4201  -4.4201  -1.0546  -1.0546  -0.2398  -0.2398
     0.1337   0.1337   0.1514   0.1514   0.2438   0.2438   0.6756   0.6756

          k =-0.5231 0.0000 0.3776 ( 27904 PWs)   bands (ev):

   -23.7647 -23.7647  -9.2995  -9.2995  -9.1306  -9.1306  -9.0555  -9.0555
    -4.9450  -4.9450  -4.5932  -4.5932  -1.1852  -1.1852  -0.6061  -0.6061
    -0.0045  -0.0045   0.1906   0.1906   0.5762   0.5762   0.7969   0.7969

          k =-0.5231 0.0000-0.7551 ( 27940 PWs)   bands (ev):

   -23.7578 -23.7578  -9.5148  -9.5148  -9.0668  -9.0668  -9.0295  -9.0295
    -4.8685  -4.8685  -4.4448  -4.4448  -1.7507  -1.7507  -0.2748  -0.2748
     0.0278   0.0278   0.1983   0.1983   0.6945   0.6945   0.7080   0.7080

          k =-0.5231 0.2550 0.0000 ( 27924 PWs)   bands (ev):

   -23.7716 -23.7716  -9.3083  -9.3083  -9.0572  -9.0572  -8.9430  -8.9430
    -5.3082  -5.3082  -4.4848  -4.4848  -0.9439  -0.9439  -0.2464  -0.2464
    -0.0868  -0.0868   0.1100   0.1100   0.4879   0.4879   0.6552   0.6552

          k =-0.5231 0.2550 0.3776 ( 27890 PWs)   bands (ev):

   -23.7647 -23.7647  -9.2858  -9.2858  -9.1788  -9.1788  -9.0230  -9.0230
    -4.9014  -4.9014  -4.6426  -4.6426  -1.1906  -1.1906  -0.5763  -0.5763
     0.0300   0.0300   0.2381   0.2381   0.5688   0.5688   0.7263   0.7263

          k =-0.5231 0.2550-0.7551 ( 27916 PWs)   bands (ev):

   -23.7578 -23.7578  -9.4929  -9.4929  -9.0859  -9.0859  -9.0404  -9.0404
    -4.8844  -4.8844  -4.4198  -4.4198  -1.6445  -1.6445  -0.4904  -0.4904
     0.0720   0.0720   0.2736   0.2736   0.6281   0.6281   0.7714   0.7714

          k =-0.5231-0.5100 0.0000 ( 27892 PWs)   bands (ev):

   -23.7716 -23.7716  -9.3570  -9.3570  -9.0039  -9.0039  -8.9426  -8.9426
    -5.2724  -5.2724  -4.5527  -4.5527  -0.7860  -0.7860  -0.4013  -0.4013
    -0.1915  -0.1915   0.3018   0.3018   0.4967   0.4967   0.6166   0.6166

          k =-0.5231-0.5100 0.3776 ( 27920 PWs)   bands (ev):

   -23.7647 -23.7647  -9.2588  -9.2588  -9.2268  -9.2268  -9.0040  -9.0040
    -4.8297  -4.8297  -4.7197  -4.7197  -1.1784  -1.1784  -0.6156  -0.6156
     0.1853   0.1853   0.3262   0.3262   0.4735   0.4735   0.6325   0.6325

          k =-0.5231-0.5100-0.7551 ( 27880 PWs)   bands (ev):

   -23.7577 -23.7577  -9.4678  -9.4678  -9.1116  -9.1116  -9.0478  -9.0478
    -4.8996  -4.8996  -4.3953  -4.3953  -1.4820  -1.4820  -0.7914  -0.7914
     0.3022   0.3022   0.3496   0.3496   0.4960   0.4960   0.7367   0.7367

     highest occupied level (ev):     0.8889

!    total energy              =    -156.47491416 Ry
     estimated scf accuracy    <          3.5E-14 Ry

     The total energy is the sum of the following terms:
     one-electron contribution =     -21.45964387 Ry
     hartree contribution      =      25.26868431 Ry
     xc contribution           =     -49.14500207 Ry
     ewald contribution        =    -111.13895253 Ry

     convergence has been achieved in   8 iterations

     Forces acting on atoms (cartesian axes, Ry/au):

     atom    1 type  2   force =     0.00000000    0.00000000    0.00002135
     atom    2 type  2   force =     0.00000000    0.00000000   -0.00002135
     atom    3 type  1   force =     0.00001493   -0.00000086    0.00010393
     atom    4 type  1   force =    -0.00001493    0.00000086    0.00010393
     atom    5 type  1   force =     0.00001493    0.00000086   -0.00010393
     atom    6 type  1   force =    -0.00001493   -0.00000086   -0.00010393
     atom    7 type  3   force =    -0.00001859   -0.00002148   -0.00003552
     atom    8 type  3   force =     0.00001859    0.00002148   -0.00003552
     atom    9 type  3   force =    -0.00001859    0.00002148    0.00003552
     atom   10 type  3   force =     0.00001859   -0.00002148    0.00003552
     atom   11 type  3   force =    -0.00000489   -0.00004098   -0.00021629
     atom   12 type  3   force =     0.00000489    0.00004098   -0.00021629
     atom   13 type  3   force =    -0.00000489    0.00004098    0.00021629
     atom   14 type  3   force =     0.00000489   -0.00004098    0.00021629
     atom   15 type  3   force =     0.00008195    0.00015412    0.00005342
     atom   16 type  3   force =    -0.00008195   -0.00015412    0.00005342
     atom   17 type  3   force =     0.00008195   -0.00015412   -0.00005342
     atom   18 type  3   force =    -0.00008195    0.00015412   -0.00005342
     atom   19 type  3   force =     0.00008365    0.00010986    0.00006648
     atom   20 type  3   force =    -0.00008365   -0.00010986    0.00006648
     atom   21 type  3   force =     0.00008365   -0.00010986   -0.00006648
     atom   22 type  3   force =    -0.00008365    0.00010986   -0.00006648

     Total force =     0.000689     Total SCF correction =     0.000000


     Computing stress (Cartesian axis) and pressure

          total   stress  (Ry/bohr**3)                   (kbar)     P=       -0.01
   0.00000023   0.00000000   0.00000000            0.03        0.00        0.00
   0.00000000  -0.00000009   0.00000000            0.00       -0.01        0.00
   0.00000000   0.00000000  -0.00000028            0.00        0.00       -0.04

     Energy error            =      7.3E-06 Ry
     Gradient error          =      2.2E-04 Ry/Bohr
     Cell gradient error     =      4.2E-02 kbar

     number of scf cycles    =  50
     number of bfgs steps    =  49

     enthalpy           old  =    -156.4749068160 Ry
     enthalpy           new  =    -156.4749141607 Ry

     CASE: enthalpy          _new < enthalpy          _old

     new trust radius        =       0.0016813096 bohr

     The maximum number of steps has been reached.

     End of BFGS Geometry Optimization
     new unit-cell volume =   1427.05412 a.u.^3 (   211.46760 Ang^3 )
     density =      2.62292 g/cm^3

CELL_PARAMETERS (alat= 13.19928345)
   0.956077219   0.000000000   0.000000000
   0.000000000   0.980515543   0.000000000
   0.000000000   0.000000000   0.661975512

ATOMIC_POSITIONS (crystal)
Ba               0.5000000000        0.5000000000        0.5000609583
Ba               0.0000000000        0.0000000000        0.9999390417
B                0.6102602611        0.2391994492        0.0000052634
B                0.3897397389        0.7608005508        0.0000052634
B                0.1102602611        0.2608005508        0.4999947366
B                0.8897397389        0.7391994492        0.4999947366
H                0.4341140256        0.2921463895        0.0002671763
H                0.5658859744        0.7078536105        0.0002671763
H                0.9341140256        0.2078536105        0.4997328237
H                0.0658859744        0.7921463895        0.4997328237
H                0.7220604182        0.3835391137        0.0001489709
H                0.2779395818        0.6164608863        0.0001489709
H                0.2220604182        0.1164608863        0.4998510291
H                0.7779395818        0.8835391137        0.4998510291
H                0.6391800484        0.1420442909        0.7804617790
H                0.3608199516        0.8579557091        0.7804617790
H                0.1391800484        0.3579557091        0.7195382210
H                0.8608199516        0.6420442909        0.7195382210
H                0.3604808781        0.8578875917        0.2194824761
H                0.6395191219        0.1421124083        0.2194824761
H                0.8604808781        0.6421124083        0.2805175239
H                0.1395191219        0.3578875917        0.2805175239



     Writing config-only to output data dir ./pwscf.save/ :
     XML data file
     NEW-OLD atomic charge density approx. for the potential

     Writing all to output data dir ./pwscf.save/ :
     XML data file, charge density, pseudopotentials, collected wavefunctions

     init_run     :      9.16s CPU     11.69s WALL (       1 calls)
     electrons    :   6747.96s CPU   6810.06s WALL (      50 calls)
     update_pot   :      9.97s CPU     10.94s WALL (      50 calls)
     forces       :    210.61s CPU    212.54s WALL (      50 calls)
     stress       :    489.86s CPU    491.90s WALL (      50 calls)

     Called by init_run:
     wfcinit      :      7.65s CPU      7.79s WALL (       1 calls)
     potinit      :      0.36s CPU      1.20s WALL (       1 calls)
     hinit0       :      0.63s CPU      2.05s WALL (       1 calls)

     Called by electrons:
     c_bands      :   5890.29s CPU   5938.40s WALL (     384 calls)
     sum_band     :    753.93s CPU    761.61s WALL (     384 calls)
     v_of_rho     :     48.16s CPU     50.94s WALL (     411 calls)
     newd         :     54.92s CPU     56.28s WALL (     411 calls)
     mix_rho      :      6.29s CPU      6.83s WALL (     384 calls)

     Called by c_bands:
     init_us_2    :    129.51s CPU    131.41s WALL (   23463 calls)
     cegterg      :   5692.54s CPU   5738.75s WALL (   10368 calls)

     Called by *egterg:
     cdiaghg      :     72.54s CPU     73.12s WALL (   45674 calls)
     h_psi        :   3879.17s CPU   3918.61s WALL (   47672 calls)
     s_psi        :    978.39s CPU    981.16s WALL (   47672 calls)
     g_psi        :     11.75s CPU     11.85s WALL (   37277 calls)

     Called by h_psi:
     h_psi:calbec :   1007.50s CPU   1011.78s WALL (   47672 calls)
     vloc_psi     :   1876.82s CPU   1909.76s WALL (   47672 calls)
     add_vuspsi   :    983.30s CPU    985.99s WALL (   47672 calls)

     General routines
     calbec       :   1558.87s CPU   1564.85s WALL (   64790 calls)
     fft          :     34.24s CPU     40.42s WALL (    6567 calls)
     ffts         :      1.71s CPU      2.68s WALL (     795 calls)
     fftw         :   1720.94s CPU   1752.87s WALL ( 1889930 calls)
     interpolate  :      3.55s CPU      4.77s WALL (     411 calls)
     davcio       :      0.01s CPU      0.05s WALL (      27 calls)

     Parallel routines

     PWSCF        :      2h 4m CPU      2h 5m WALL


   This run was terminated on:  10:38:27   9Jul2024            

=------------------------------------------------------------------------------=
   JOB DONE.
=------------------------------------------------------------------------------=
