
     Program PWSCF v.7.3.1 starts on 27May2024 at 21:34:29 

     This program is part of the open-source Quantum ESPRESSO suite
     for quantum simulation of materials; please cite
         "P. Giannozzi et al., J. Phys.:Condens. Matter 21 395502 (2009);
         "P. Giannozzi et al., J. Phys.:Condens. Matter 29 465901 (2017);
         "P. Giannozzi et al., J. Chem. Phys. 152 154105 (2020);
          URL http://www.quantum-espresso.org", 
     in publications or presentations arising from this work. More details at
     http://www.quantum-espresso.org/quote

     Parallel version (MPI), running on    24 processors

     MPI processes distributed on     1 nodes
     126069 MiB available memory on the printing compute node when the environment starts

     Waiting for input...
     Reading input from standard input
Warning: card &CELL ignored
Warning: card / ignored

     Current dimensions of program PWSCF are:
     Max number of different atomic species (ntypx) = 10
     Max number of k-points (npk) =  40000
     Max angular momentum in pseudopotentials (lmaxx) =  4

     R & G space division:  proc/nbgrp/npool/nimage =      24
     Subspace diagonalization in iterative solution of the eigenvalue problem:
     a serial algorithm will be used


     Parallelization info
     --------------------
     sticks:   dense  smooth     PW     G-vecs:    dense   smooth      PW
     Min         239     239     65                 9297     9297    1335
     Max         240     240     66                 9300     9300    1338
     Sum        5743    5743   1569               223149   223149   32071

     Using Slab Decomposition


     Title: 
     k-grid_test                                                                


     bravais-lattice index     =            8
     lattice parameter (alat)  =      13.1993  a.u.
     unit-cell volume          =    1652.2482 (a.u.)^3
     number of atoms/cell      =           22
     number of atomic types    =            3
     number of electrons       =        48.00
     number of Kohn-Sham states=           24
     kinetic-energy cutoff     =     100.0000  Ry
     charge density cutoff     =     400.0000  Ry
     scf convergence threshold =      1.0E-08
     mixing beta               =       0.7000
     number of iterations used =            8  plain     mixing
     Exchange-correlation= PBESOL
                           (   1   4  10   8   0   0   0)

     celldm(1)=  13.199283  celldm(2)=   1.034883  celldm(3)=   0.694277
     celldm(4)=   0.000000  celldm(5)=   0.000000  celldm(6)=   0.000000

     crystal axes: (cart. coord. in units of alat)
               a(1) = (   1.000000   0.000000   0.000000 )  
               a(2) = (   0.000000   1.034883   0.000000 )  
               a(3) = (   0.000000   0.000000   0.694277 )  

     reciprocal axes: (cart. coord. in units 2 pi/alat)
               b(1) = (  1.000000  0.000000  0.000000 )  
               b(2) = (  0.000000  0.966293  0.000000 )  
               b(3) = (  0.000000  0.000000  1.440347 )  


     PseudoPot. # 1 for B  read from file:
     /home/mehlhorn/pseudos/b_pbesol_v1.4.uspp.F.UPF
     MD5 check sum: 369b69bef2c3aeed4453bd8b804fd6a8
     Pseudo is Ultrasoft + core correction, Zval =  3.0
     Generated by new atomic code, or converted to UPF format
     Using radial grid of  781 points,  4 beta functions with: 
                l(1) =   0
                l(2) =   0
                l(3) =   1
                l(4) =   1
     Q(r) pseudized with  8 coefficients,  rinner =    1.100   1.100   1.100


     PseudoPot. # 2 for Ba read from file:
     /home/mehlhorn/pseudos/Ba.nc.z_10.oncvpsp4.dojo.v4-sp.upf
     MD5 check sum: c10ed334bb677c0554edec7181ce9143
     Pseudo is Norm-conserving + core correction, Zval = 10.0
     Generated using ONCVPSP code by D. R. Hamann
     Using radial grid of 1938 points,  8 beta functions with: 
                l(1) =   0
                l(2) =   0
                l(3) =   1
                l(4) =   1
                l(5) =   2
                l(6) =   2
                l(7) =   3
                l(8) =   3

     PseudoPot. # 3 for H  read from file:
     /home/mehlhorn/pseudos/H_ONCV_PBEsol-1.0.upf
     MD5 check sum: 398ef8f67c0a7342c05c87c5e19ea467
     Pseudo is Norm-conserving, Zval =  1.0
     Generated using ONCVPSP code by D. R. Hamann
     Using radial grid of 1180 points,  2 beta functions with: 
                l(1) =   0
                l(2) =   0

     atomic species   valence    mass     pseudopotential
     B                 3.00    10.81100     B ( 1.00)
     Ba               10.00   137.32700     Ba( 1.00)
     H                 1.00     1.00794     H ( 1.00)

      4 Sym. Ops. (no inversion) found ( 2 have fractional translation)



   Cartesian axes

     site n.     atom                  positions (alat units)
         1        Ba     tau(   1) = (   0.5000000   0.5174415   0.3471942  )
         2        Ba     tau(   2) = (   0.0000000   0.0000000   0.6942217  )
         3        B      tau(   3) = (   0.6308000   0.2628603   0.0000139  )
         4        B      tau(   4) = (   0.3692000   0.7720228   0.0000139  )
         5        B      tau(   5) = (   0.1308000   0.2545812   0.3471247  )
         6        B      tau(   6) = (   0.8692000   0.7803018   0.3471247  )
         7        H      tau(   7) = (   0.4582000   0.2939068   0.0001805  )
         8        H      tau(   8) = (   0.5418000   0.7409763   0.0001805  )
         9        H      tau(   9) = (   0.9582000   0.2235347   0.3469581  )
        10        H      tau(  10) = (   0.0418000   0.8113483   0.3469581  )
        11        H      tau(  11) = (   0.7204000   0.4141602   0.0000000  )
        12        H      tau(  12) = (   0.2796000   0.6207229   0.0000000  )
        13        H      tau(  13) = (   0.2204000   0.1032813   0.3471386  )
        14        H      tau(  14) = (   0.7796000   0.9316018   0.3471386  )
        15        H      tau(  15) = (   0.6689000   0.1713766   0.5494094  )
        16        H      tau(  16) = (   0.3311000   0.8635064   0.5494094  )
        17        H      tau(  17) = (   0.1689000   0.3460649   0.4920065  )
        18        H      tau(  18) = (   0.8311000   0.6888182   0.4920065  )
        19        H      tau(  19) = (   0.3311000   0.8635064   0.1448679  )
        20        H      tau(  20) = (   0.6689000   0.1713766   0.1448679  )
        21        H      tau(  21) = (   0.8311000   0.6888182   0.2022707  )
        22        H      tau(  22) = (   0.1689000   0.3460649   0.2022707  )

     number of k points=    27
                       cart. coord. in units 2pi/alat
        k(    1) = (   0.0000000   0.0000000   0.0000000), wk =   0.0312500
        k(    2) = (   0.0000000   0.0000000   0.3600867), wk =   0.0625000
        k(    3) = (   0.0000000   0.0000000  -0.7201734), wk =   0.0312500
        k(    4) = (   0.0000000   0.2415732   0.0000000), wk =   0.0625000
        k(    5) = (   0.0000000   0.2415732   0.3600867), wk =   0.1250000
        k(    6) = (   0.0000000   0.2415732  -0.7201734), wk =   0.0625000
        k(    7) = (   0.0000000  -0.4831464   0.0000000), wk =   0.0312500
        k(    8) = (   0.0000000  -0.4831464   0.3600867), wk =   0.0625000
        k(    9) = (   0.0000000  -0.4831464  -0.7201734), wk =   0.0312500
        k(   10) = (   0.2500000   0.0000000   0.0000000), wk =   0.0625000
        k(   11) = (   0.2500000   0.0000000   0.3600867), wk =   0.1250000
        k(   12) = (   0.2500000   0.0000000  -0.7201734), wk =   0.0625000
        k(   13) = (   0.2500000   0.2415732   0.0000000), wk =   0.1250000
        k(   14) = (   0.2500000   0.2415732   0.3600867), wk =   0.2500000
        k(   15) = (   0.2500000   0.2415732  -0.7201734), wk =   0.1250000
        k(   16) = (   0.2500000  -0.4831464   0.0000000), wk =   0.0625000
        k(   17) = (   0.2500000  -0.4831464   0.3600867), wk =   0.1250000
        k(   18) = (   0.2500000  -0.4831464  -0.7201734), wk =   0.0625000
        k(   19) = (  -0.5000000   0.0000000   0.0000000), wk =   0.0312500
        k(   20) = (  -0.5000000   0.0000000   0.3600867), wk =   0.0625000
        k(   21) = (  -0.5000000   0.0000000  -0.7201734), wk =   0.0312500
        k(   22) = (  -0.5000000   0.2415732   0.0000000), wk =   0.0625000
        k(   23) = (  -0.5000000   0.2415732   0.3600867), wk =   0.1250000
        k(   24) = (  -0.5000000   0.2415732  -0.7201734), wk =   0.0625000
        k(   25) = (  -0.5000000  -0.4831464   0.0000000), wk =   0.0312500
        k(   26) = (  -0.5000000  -0.4831464   0.3600867), wk =   0.0625000
        k(   27) = (  -0.5000000  -0.4831464  -0.7201734), wk =   0.0312500

     Dense  grid:   223149 G-vectors     FFT dimensions: (  90,  90,  60)

     Estimated max dynamical RAM per process >      41.35 MB

     Estimated total dynamical RAM >     992.46 MB

     Initial potential from superposition of free atoms

     starting charge      47.9682, renormalised to      48.0000
     Starting wfcs are   42 randomized atomic wfcs

     total cpu time spent up to now is        9.0 secs

     Self-consistent Calculation

     iteration #  1     ecut=   100.00 Ry     beta= 0.70
     Davidson diagonalization with overlap
     ethr =  1.00E-02,  avg # of iterations =  2.0

     total cpu time spent up to now is       23.2 secs

     total energy              =    -155.85586125 Ry
     estimated scf accuracy    <       2.28699342 Ry

     iteration #  2     ecut=   100.00 Ry     beta= 0.70
     Davidson diagonalization with overlap
     ethr =  4.76E-03,  avg # of iterations =  2.0

     total cpu time spent up to now is       36.7 secs

     total energy              =    -156.38197702 Ry
     estimated scf accuracy    <       0.41631483 Ry

     iteration #  3     ecut=   100.00 Ry     beta= 0.70
     Davidson diagonalization with overlap
     ethr =  8.67E-04,  avg # of iterations =  2.0

     total cpu time spent up to now is       50.2 secs

     total energy              =    -156.45216708 Ry
     estimated scf accuracy    <       0.00519802 Ry

     iteration #  4     ecut=   100.00 Ry     beta= 0.70
     Davidson diagonalization with overlap
     ethr =  1.08E-05,  avg # of iterations =  5.2

     total cpu time spent up to now is       70.1 secs

     total energy              =    -156.45503921 Ry
     estimated scf accuracy    <       0.00193600 Ry

     iteration #  5     ecut=   100.00 Ry     beta= 0.70
     Davidson diagonalization with overlap
     ethr =  4.03E-06,  avg # of iterations =  3.1

     total cpu time spent up to now is       84.2 secs

     total energy              =    -156.45569902 Ry
     estimated scf accuracy    <       0.00017464 Ry

     iteration #  6     ecut=   100.00 Ry     beta= 0.70
     Davidson diagonalization with overlap
     ethr =  3.64E-07,  avg # of iterations =  4.4

     total cpu time spent up to now is      100.2 secs

     total energy              =    -156.45576756 Ry
     estimated scf accuracy    <       0.00000183 Ry

     iteration #  7     ecut=   100.00 Ry     beta= 0.70
     Davidson diagonalization with overlap
     ethr =  3.82E-09,  avg # of iterations =  8.3

     total cpu time spent up to now is      130.9 secs

     total energy              =    -156.45577729 Ry
     estimated scf accuracy    <       0.00000122 Ry

     iteration #  8     ecut=   100.00 Ry     beta= 0.70
     Davidson diagonalization with overlap
     ethr =  2.55E-09,  avg # of iterations =  2.1

     total cpu time spent up to now is      144.5 secs

     total energy              =    -156.45577756 Ry
     estimated scf accuracy    <       0.00000001 Ry

     iteration #  9     ecut=   100.00 Ry     beta= 0.70
     Davidson diagonalization with overlap
     ethr =  2.62E-11,  avg # of iterations =  6.5

     total cpu time spent up to now is      168.2 secs

     End of self-consistent calculation

          k = 0.0000 0.0000 0.0000 ( 27937 PWs)   bands (ev):

   -25.2013 -25.1970 -10.5614 -10.5255 -10.3875 -10.3771 -10.3298 -10.2891
    -6.6441  -5.8691  -5.5170  -5.3884  -2.2787  -1.4468  -1.4062  -1.0900
    -1.0263  -0.9861  -0.8946  -0.8711  -0.5664  -0.2163  -0.2156  -0.1528

          k = 0.0000 0.0000 0.3601 ( 27905 PWs)   bands (ev):

   -25.1974 -25.1944 -10.5060 -10.4829 -10.4758 -10.4545 -10.3815 -10.3773
    -6.2941  -5.7166  -5.6141  -5.5265  -1.9628  -1.7924  -1.5118  -1.2313
    -1.1882  -1.1364  -0.7638  -0.6205  -0.4705  -0.3728  -0.2977  -0.2922

          k = 0.0000 0.0000-0.7202 ( 27838 PWs)   bands (ev):

   -25.1926 -25.1926 -10.6064 -10.6063 -10.4263 -10.4263 -10.3942 -10.3942
    -5.7596  -5.7591  -5.6901  -5.6898  -1.8388  -1.8367  -1.7027  -1.7015
    -0.9004  -0.8978  -0.7897  -0.7891  -0.4427  -0.4426  -0.3560  -0.3515

          k = 0.0000 0.2416 0.0000 ( 27927 PWs)   bands (ev):

   -25.2007 -25.1976 -10.5401 -10.5050 -10.4168 -10.3993 -10.3238 -10.2951
    -6.5074  -5.8514  -5.6684  -5.4573  -2.0469  -1.5941  -1.4528  -1.0321
    -0.9745  -0.8862  -0.7864  -0.7699  -0.5895  -0.5102  -0.2370  -0.2354

          k = 0.0000 0.2416 0.3601 ( 27878 PWs)   bands (ev):

   -25.1970 -25.1948 -10.5192 -10.4873 -10.4571 -10.4452 -10.3898 -10.3815
    -6.2093  -5.7691  -5.6514  -5.5549  -1.8351  -1.8116  -1.6161  -1.1646
    -1.1095  -0.9613  -0.8742  -0.6037  -0.5122  -0.4225  -0.3632  -0.3191

          k = 0.0000 0.2416-0.7202 ( 27836 PWs)   bands (ev):

   -25.1926 -25.1926 -10.6192 -10.6191 -10.4132 -10.4132 -10.3924 -10.3924
    -5.9100  -5.9099  -5.5374  -5.5374  -1.9525  -1.9517  -1.5711  -1.5707
    -0.8320  -0.8290  -0.7309  -0.7298  -0.4979  -0.4966  -0.4338  -0.4303

          k = 0.0000-0.4831 0.0000 ( 27884 PWs)   bands (ev):

   -25.1991 -25.1991 -10.4853 -10.4853 -10.4500 -10.4500 -10.3094 -10.3094
    -6.1596  -6.1596  -5.6129  -5.6129  -1.7587  -1.7587  -1.1368  -1.1368
    -1.0247  -1.0247  -0.6621  -0.6621  -0.6146  -0.6146  -0.3435  -0.3435

          k = 0.0000-0.4831 0.3601 ( 27882 PWs)   bands (ev):

   -25.1959 -25.1959 -10.5129 -10.5129 -10.4314 -10.4314 -10.3968 -10.3968
    -5.9941  -5.9941  -5.6144  -5.6144  -1.8123  -1.8123  -1.3879  -1.3879
    -0.9406  -0.9406  -0.6736  -0.6736  -0.6141  -0.6141  -0.3448  -0.3448

          k = 0.0000-0.4831-0.7202 ( 27848 PWs)   bands (ev):

   -25.1926 -25.1926 -10.6304 -10.6304 -10.4044 -10.4044 -10.3878 -10.3878
    -5.9841  -5.9841  -5.4614  -5.4614  -2.0314  -2.0314  -1.4335  -1.4335
    -0.7975  -0.7975  -0.6518  -0.6518  -0.6450  -0.6450  -0.4403  -0.4403

          k = 0.2500 0.0000 0.0000 ( 27908 PWs)   bands (ev):

   -25.2007 -25.1976 -10.5368 -10.5096 -10.4135 -10.4050 -10.3238 -10.2950
    -6.5035  -5.9043  -5.5431  -5.5139  -2.0886  -1.3635  -1.3620  -1.2031
    -0.9705  -0.8987  -0.8749  -0.7732  -0.6392  -0.4773  -0.2833  -0.2778

          k = 0.2500 0.0000 0.3601 ( 27908 PWs)   bands (ev):

   -25.1970 -25.1948 -10.5110 -10.5004 -10.4637 -10.4367 -10.3952 -10.3774
    -6.1858  -5.7111  -5.6374  -5.6323  -1.9128  -1.7665  -1.6592  -1.1810
    -1.1043  -0.9587  -0.7956  -0.6569  -0.5662  -0.3577  -0.3442  -0.3019

          k = 0.2500 0.0000-0.7202 ( 27934 PWs)   bands (ev):

   -25.1926 -25.1926 -10.6207 -10.6206 -10.4143 -10.4143 -10.3921 -10.3921
    -5.8283  -5.8280  -5.6078  -5.6075  -2.1266  -2.1261  -1.4623  -1.4603
    -0.8386  -0.8384  -0.6913  -0.6891  -0.5196  -0.5181  -0.3477  -0.3456

          k = 0.2500 0.2416 0.0000 ( 27923 PWs)   bands (ev):

   -25.2002 -25.1981 -10.5548 -10.4794 -10.4562 -10.3773 -10.3195 -10.2992
    -6.4101  -5.9345  -5.6568  -5.4992  -1.9237  -1.5711  -1.3618  -1.0386
    -0.9819  -0.9789  -0.7483  -0.7129  -0.6097  -0.5988  -0.3787  -0.2561

          k = 0.2500 0.2416 0.3601 ( 27899 PWs)   bands (ev):

   -25.1966 -25.1951 -10.5106 -10.5007 -10.4763 -10.4241 -10.3977 -10.3764
    -6.1199  -5.7653  -5.6898  -5.6075  -1.8922  -1.7538  -1.6741  -1.2253
    -0.9864  -0.9492  -0.7956  -0.6155  -0.5877  -0.4428  -0.3357  -0.2939

          k = 0.2500 0.2416-0.7202 ( 27888 PWs)   bands (ev):

   -25.1926 -25.1926 -10.6289 -10.6087 -10.4291 -10.4010 -10.3955 -10.3915
    -5.9317  -5.7769  -5.6566  -5.5022  -2.1525  -2.0416  -1.5657  -1.4895
    -0.8584  -0.7880  -0.6690  -0.6215  -0.5524  -0.4387  -0.4076  -0.3337

          k = 0.2500-0.4831 0.0000 ( 27924 PWs)   bands (ev):

   -25.1991 -25.1991 -10.5359 -10.5359 -10.3995 -10.3995 -10.3093 -10.3093
    -6.1687  -6.1687  -5.5988  -5.5988  -1.7036  -1.7036  -1.1778  -1.1778
    -1.0548  -1.0548  -0.6320  -0.6320  -0.6291  -0.6291  -0.3573  -0.3573

          k = 0.2500-0.4831 0.3601 ( 27906 PWs)   bands (ev):

   -25.1959 -25.1959 -10.5108 -10.5108 -10.4508 -10.4508 -10.3821 -10.3821
    -5.9535  -5.9535  -5.6457  -5.6457  -1.8450  -1.8450  -1.4529  -1.4529
    -0.9113  -0.9113  -0.6737  -0.6737  -0.5264  -0.5264  -0.3406  -0.3406

          k = 0.2500-0.4831-0.7202 ( 27848 PWs)   bands (ev):

   -25.1926 -25.1926 -10.6181 -10.6181 -10.4163 -10.4163 -10.3932 -10.3932
    -5.9098  -5.9098  -5.5218  -5.5218  -2.0723  -2.0723  -1.5889  -1.5889
    -0.7911  -0.7911  -0.6180  -0.6180  -0.5034  -0.5034  -0.3635  -0.3635

          k =-0.5000 0.0000 0.0000 ( 27930 PWs)   bands (ev):

   -25.1991 -25.1991 -10.4785 -10.4785 -10.4604 -10.4604 -10.3093 -10.3093
    -6.1658  -6.1658  -5.5875  -5.5875  -1.7148  -1.7148  -1.0250  -1.0250
    -0.9042  -0.9042  -0.7998  -0.7998  -0.7664  -0.7664  -0.4271  -0.4271

          k =-0.5000 0.0000 0.3601 ( 27904 PWs)   bands (ev):

   -25.1959 -25.1959 -10.5137 -10.5137 -10.4392 -10.4392 -10.3924 -10.3924
    -5.9217  -5.9217  -5.6691  -5.6691  -1.8634  -1.8634  -1.4197  -1.4197
    -0.9288  -0.9288  -0.7391  -0.7391  -0.4891  -0.4891  -0.3446  -0.3446

          k =-0.5000 0.0000-0.7202 ( 27940 PWs)   bands (ev):

   -25.1926 -25.1926 -10.6333 -10.6333 -10.4057 -10.4057 -10.3882 -10.3882
    -5.8651  -5.8651  -5.5567  -5.5567  -2.2844  -2.2844  -1.2889  -1.2889
    -0.8068  -0.8068  -0.7892  -0.7892  -0.4008  -0.4008  -0.3650  -0.3650

          k =-0.5000 0.2416 0.0000 ( 27924 PWs)   bands (ev):

   -25.1991 -25.1991 -10.5359 -10.5359 -10.4013 -10.4013 -10.3092 -10.3092
    -6.1718  -6.1718  -5.5860  -5.5860  -1.6854  -1.6854  -1.1098  -1.1098
    -1.0197  -1.0197  -0.7378  -0.7378  -0.6752  -0.6752  -0.3748  -0.3748

          k =-0.5000 0.2416 0.3601 ( 27890 PWs)   bands (ev):

   -25.1959 -25.1959 -10.5114 -10.5114 -10.4529 -10.4529 -10.3814 -10.3814
    -5.9125  -5.9125  -5.6777  -5.6777  -1.8662  -1.8662  -1.4825  -1.4825
    -0.8839  -0.8839  -0.7041  -0.7041  -0.4323  -0.4323  -0.3876  -0.3876

          k =-0.5000 0.2416-0.7202 ( 27916 PWs)   bands (ev):

   -25.1926 -25.1926 -10.6198 -10.6198 -10.4164 -10.4164 -10.3938 -10.3938
    -5.8340  -5.8340  -5.5856  -5.5856  -2.2196  -2.2196  -1.4938  -1.4938
    -0.7580  -0.7580  -0.7193  -0.7193  -0.4351  -0.4351  -0.2779  -0.2779

          k =-0.5000-0.4831 0.0000 ( 27892 PWs)   bands (ev):

   -25.1991 -25.1991 -10.5625 -10.5625 -10.3729 -10.3729 -10.3091 -10.3091
    -6.1778  -6.1778  -5.5844  -5.5844  -1.6415  -1.6415  -1.2252  -1.2252
    -1.0812  -1.0812  -0.6424  -0.6424  -0.6046  -0.6046  -0.3741  -0.3741

          k =-0.5000-0.4831 0.3601 ( 27920 PWs)   bands (ev):

   -25.1959 -25.1959 -10.5091 -10.5091 -10.4635 -10.4635 -10.3737 -10.3737
    -5.9028  -5.9028  -5.6868  -5.6868  -1.8564  -1.8564  -1.5602  -1.5602
    -0.8489  -0.8489  -0.5580  -0.5580  -0.5323  -0.5323  -0.3727  -0.3727

          k =-0.5000-0.4831-0.7202 ( 27880 PWs)   bands (ev):

   -25.1926 -25.1926 -10.6039 -10.6039 -10.4321 -10.4321 -10.3967 -10.3967
    -5.7932  -5.7932  -5.6243  -5.6243  -2.1072  -2.1072  -1.7208  -1.7208
    -0.7554  -0.7554  -0.5277  -0.5277  -0.5170  -0.5170  -0.2458  -0.2458

     highest occupied level (ev):    -0.1528

!    total energy              =    -156.45577759 Ry
     estimated scf accuracy    <          1.4E-09 Ry

     The total energy is the sum of the following terms:
     one-electron contribution =     -35.60690046 Ry
     hartree contribution      =      30.32218547 Ry
     xc contribution           =     -48.96389933 Ry
     ewald contribution        =    -102.20716326 Ry

     convergence has been achieved in   9 iterations

     Writing all to output data dir ./pwscf.save/ :
     XML data file, charge density, pseudopotentials, collected wavefunctions

     init_run     :      7.92s CPU      8.79s WALL (       1 calls)
     electrons    :    158.05s CPU    159.24s WALL (       1 calls)

     Called by init_run:
     wfcinit      :      7.30s CPU      7.37s WALL (       1 calls)
     potinit      :      0.05s CPU      0.06s WALL (       1 calls)
     hinit0       :      0.34s CPU      1.12s WALL (       1 calls)

     Called by electrons:
     c_bands      :    142.19s CPU    143.20s WALL (       9 calls)
     sum_band     :     15.00s CPU     15.12s WALL (       9 calls)
     v_of_rho     :      0.37s CPU      0.39s WALL (      10 calls)
     newd         :      0.46s CPU      0.49s WALL (      10 calls)
     mix_rho      :      0.07s CPU      0.08s WALL (       9 calls)

     Called by c_bands:
     init_us_2    :      2.91s CPU      2.94s WALL (     513 calls)
     cegterg      :    137.54s CPU    138.53s WALL (     243 calls)

     Called by *egterg:
     cdiaghg      :      2.04s CPU      2.05s WALL (    1205 calls)
     h_psi        :     95.13s CPU     96.05s WALL (    1232 calls)
     s_psi        :     26.07s CPU     26.11s WALL (    1232 calls)
     g_psi        :      0.31s CPU      0.31s WALL (     962 calls)

     Called by h_psi:
     h_psi:calbec :     27.13s CPU     27.20s WALL (    1232 calls)
     vloc_psi     :     41.49s CPU     42.31s WALL (    1232 calls)
     add_vuspsi   :     26.20s CPU     26.24s WALL (    1232 calls)

     General routines
     calbec       :     34.28s CPU     34.36s WALL (    1475 calls)
     fft          :      0.41s CPU      1.19s WALL (     110 calls)
     ffts         :      0.02s CPU      0.02s WALL (       9 calls)
     fftw         :     42.26s CPU     43.21s WALL (   49502 calls)

     Parallel routines

     PWSCF        :   2m46.59s CPU   2m49.30s WALL


   This run was terminated on:  21:37:18  27May2024            

=------------------------------------------------------------------------------=
   JOB DONE.
=------------------------------------------------------------------------------=
