
     Program PWSCF v.7.3.1 starts on 12Jul2024 at 15:54:42 

     This program is part of the open-source Quantum ESPRESSO suite
     for quantum simulation of materials; please cite
         "P. Giannozzi et al., J. Phys.:Condens. Matter 21 395502 (2009);
         "P. Giannozzi et al., J. Phys.:Condens. Matter 29 465901 (2017);
         "P. Giannozzi et al., J. Chem. Phys. 152 154105 (2020);
          URL http://www.quantum-espresso.org", 
     in publications or presentations arising from this work. More details at
     http://www.quantum-espresso.org/quote

     Parallel version (MPI), running on    24 processors

     MPI processes distributed on     1 nodes
     126259 MiB available memory on the printing compute node when the environment starts

     Waiting for input...
     Reading input from standard input

     Current dimensions of program PWSCF are:
     Max number of different atomic species (ntypx) = 10
     Max number of k-points (npk) =  40000
     Max angular momentum in pseudopotentials (lmaxx) =  4

     R & G space division:  proc/nbgrp/npool/nimage =      24
     Subspace diagonalization in iterative solution of the eigenvalue problem:
     a serial algorithm will be used


     Parallelization info
     --------------------
     sticks:   dense  smooth     PW     G-vecs:    dense   smooth      PW
     Min         447     223     61                23855     8431    1215
     Max         448     224     62                23858     8434    1218
     Sum       10733    5371   1473               572551   202387   29201

     Using Slab Decomposition


     Title: 
     volume variation                                                           


     bravais-lattice index     =            8
     lattice parameter (alat)  =      12.8261  a.u.
     unit-cell volume          =    1498.3188 (a.u.)^3
     number of atoms/cell      =           22
     number of atomic types    =            3
     number of electrons       =        48.00
     number of Kohn-Sham states=           24
     kinetic-energy cutoff     =     100.0000  Ry
     charge density cutoff     =     800.0000  Ry
     scf convergence threshold =      1.0E-10
     mixing beta               =       0.7000
     number of iterations used =            8  plain     mixing
     energy convergence thresh.=      1.0E-05
     force convergence thresh. =      1.0E-05
     press convergence thresh. =      5.0E-01
     Exchange-correlation= PBESOL
                           (   1   4  10   8   0   0   0)
     nstep                     =          300


     celldm(1)=  12.826112  celldm(2)=   1.025571  celldm(3)=   0.692394
     celldm(4)=   0.000000  celldm(5)=   0.000000  celldm(6)=   0.000000

     crystal axes: (cart. coord. in units of alat)
               a(1) = (   1.000000   0.000000   0.000000 )  
               a(2) = (   0.000000   1.025571   0.000000 )  
               a(3) = (   0.000000   0.000000   0.692394 )  

     reciprocal axes: (cart. coord. in units 2 pi/alat)
               b(1) = (  1.000000  0.000000  0.000000 )  
               b(2) = (  0.000000  0.975067  0.000000 )  
               b(3) = (  0.000000  0.000000  1.444264 )  


     PseudoPot. # 1 for B  read from file:
     /home/mehlhorn/pseudos/b_pbesol_v1.4.uspp.F.UPF
     MD5 check sum: 369b69bef2c3aeed4453bd8b804fd6a8
     Pseudo is Ultrasoft + core correction, Zval =  3.0
     Generated by new atomic code, or converted to UPF format
     Using radial grid of  781 points,  4 beta functions with: 
                l(1) =   0
                l(2) =   0
                l(3) =   1
                l(4) =   1
     Q(r) pseudized with  8 coefficients,  rinner =    1.100   1.100   1.100


     PseudoPot. # 2 for Ba read from file:
     /home/mehlhorn/pseudos/Ba.nc.z_10.oncvpsp4.dojo.v4-sp.upf
     MD5 check sum: c10ed334bb677c0554edec7181ce9143
     Pseudo is Norm-conserving + core correction, Zval = 10.0
     Generated using ONCVPSP code by D. R. Hamann
     Using radial grid of 1938 points,  8 beta functions with: 
                l(1) =   0
                l(2) =   0
                l(3) =   1
                l(4) =   1
                l(5) =   2
                l(6) =   2
                l(7) =   3
                l(8) =   3

     PseudoPot. # 3 for H  read from file:
     /home/mehlhorn/pseudos/H_ONCV_PBEsol-1.0.upf
     MD5 check sum: 398ef8f67c0a7342c05c87c5e19ea467
     Pseudo is Norm-conserving, Zval =  1.0
     Generated using ONCVPSP code by D. R. Hamann
     Using radial grid of 1180 points,  2 beta functions with: 
                l(1) =   0
                l(2) =   0

     atomic species   valence    mass     pseudopotential
     B                 3.00    10.81100     B ( 1.00)
     Ba               10.00   137.32700     Ba( 1.00)
     H                 1.00     1.00794     H ( 1.00)

      4 Sym. Ops. (no inversion) found ( 2 have fractional translation)



   Cartesian axes

     site n.     atom                  positions (alat units)
         1        Ba     tau(   1) = (   0.5000000   0.5127855   0.3462657  )
         2        Ba     tau(   2) = (   0.0000000   0.0000000   0.6923255  )
         3        B      tau(   3) = (   0.6102570   0.2453190   0.0000455  )
         4        B      tau(   4) = (   0.3897430   0.7802519   0.0000455  )
         5        B      tau(   5) = (   0.1102570   0.2674665   0.3461516  )
         6        B      tau(   6) = (   0.8897430   0.7581045   0.3461516  )
         7        H      tau(   7) = (   0.4340973   0.2996264   0.0001599  )
         8        H      tau(   8) = (   0.5659027   0.7259445   0.0001599  )
         9        H      tau(   9) = (   0.9340973   0.2131590   0.3460372  )
        10        H      tau(  10) = (   0.0659027   0.8124119   0.3460372  )
        11        H      tau(  11) = (   0.7220603   0.3933629  -0.0000058  )
        12        H      tau(  12) = (   0.2779397   0.6322081  -0.0000058  )
        13        H      tau(  13) = (   0.2220603   0.1194226   0.3462029  )
        14        H      tau(  14) = (   0.7779397   0.9061483   0.3462029  )
        15        H      tau(  15) = (   0.6392499   0.1457279   0.5404125  )
        16        H      tau(  16) = (   0.3607501   0.8798430   0.5404125  )
        17        H      tau(  17) = (   0.1392499   0.3670576   0.4981787  )
        18        H      tau(  18) = (   0.8607501   0.6585133   0.4981787  )
        19        H      tau(  19) = (   0.3605328   0.8798946   0.1519977  )
        20        H      tau(  20) = (   0.6394672   0.1456763   0.1519977  )
        21        H      tau(  21) = (   0.8605328   0.6584617   0.1941994  )
        22        H      tau(  22) = (   0.1394672   0.3671092   0.1941994  )

     number of k points=    27
                       cart. coord. in units 2pi/alat
        k(    1) = (   0.0000000   0.0000000   0.0000000), wk =   0.0312500
        k(    2) = (   0.0000000   0.0000000   0.3610660), wk =   0.0625000
        k(    3) = (   0.0000000   0.0000000  -0.7221320), wk =   0.0312500
        k(    4) = (   0.0000000   0.2437667   0.0000000), wk =   0.0625000
        k(    5) = (   0.0000000   0.2437667   0.3610660), wk =   0.1250000
        k(    6) = (   0.0000000   0.2437667  -0.7221320), wk =   0.0625000
        k(    7) = (   0.0000000  -0.4875333   0.0000000), wk =   0.0312500
        k(    8) = (   0.0000000  -0.4875333   0.3610660), wk =   0.0625000
        k(    9) = (   0.0000000  -0.4875333  -0.7221320), wk =   0.0312500
        k(   10) = (   0.2500000   0.0000000   0.0000000), wk =   0.0625000
        k(   11) = (   0.2500000   0.0000000   0.3610660), wk =   0.1250000
        k(   12) = (   0.2500000   0.0000000  -0.7221320), wk =   0.0625000
        k(   13) = (   0.2500000   0.2437667   0.0000000), wk =   0.1250000
        k(   14) = (   0.2500000   0.2437667   0.3610660), wk =   0.2500000
        k(   15) = (   0.2500000   0.2437667  -0.7221320), wk =   0.1250000
        k(   16) = (   0.2500000  -0.4875333   0.0000000), wk =   0.0625000
        k(   17) = (   0.2500000  -0.4875333   0.3610660), wk =   0.1250000
        k(   18) = (   0.2500000  -0.4875333  -0.7221320), wk =   0.0625000
        k(   19) = (  -0.5000000   0.0000000   0.0000000), wk =   0.0312500
        k(   20) = (  -0.5000000   0.0000000   0.3610660), wk =   0.0625000
        k(   21) = (  -0.5000000   0.0000000  -0.7221320), wk =   0.0312500
        k(   22) = (  -0.5000000   0.2437667   0.0000000), wk =   0.0625000
        k(   23) = (  -0.5000000   0.2437667   0.3610660), wk =   0.1250000
        k(   24) = (  -0.5000000   0.2437667  -0.7221320), wk =   0.0625000
        k(   25) = (  -0.5000000  -0.4875333   0.0000000), wk =   0.0312500
        k(   26) = (  -0.5000000  -0.4875333   0.3610660), wk =   0.0625000
        k(   27) = (  -0.5000000  -0.4875333  -0.7221320), wk =   0.0312500

     Dense  grid:   572551 G-vectors     FFT dimensions: ( 120, 120,  80)

     Smooth grid:   202387 G-vectors     FFT dimensions: (  90,  90,  60)

     Estimated max dynamical RAM per process >      93.51 MB

     Estimated total dynamical RAM >       2.19 GB

     Initial potential from superposition of free atoms

     starting charge      47.9682, renormalised to      48.0000
     Starting wfcs are   42 randomized atomic wfcs

     total cpu time spent up to now is       11.1 secs

     Self-consistent Calculation

     iteration #  1     ecut=   100.00 Ry     beta= 0.70
     Davidson diagonalization with overlap
     ethr =  1.00E-02,  avg # of iterations =  2.0

     total cpu time spent up to now is       24.8 secs

     total energy              =    -155.94922214 Ry
     estimated scf accuracy    <       1.97909142 Ry

     iteration #  2     ecut=   100.00 Ry     beta= 0.70
     Davidson diagonalization with overlap
     ethr =  4.12E-03,  avg # of iterations =  2.0

     total cpu time spent up to now is       38.1 secs

     total energy              =    -156.40329989 Ry
     estimated scf accuracy    <       0.36527507 Ry

     iteration #  3     ecut=   100.00 Ry     beta= 0.70
     Davidson diagonalization with overlap
     ethr =  7.61E-04,  avg # of iterations =  2.0

     total cpu time spent up to now is       51.4 secs

     total energy              =    -156.46442143 Ry
     estimated scf accuracy    <       0.00472580 Ry

     iteration #  4     ecut=   100.00 Ry     beta= 0.70
     Davidson diagonalization with overlap
     ethr =  9.85E-06,  avg # of iterations =  5.1

     total cpu time spent up to now is       71.0 secs

     total energy              =    -156.46730469 Ry
     estimated scf accuracy    <       0.00177584 Ry

     iteration #  5     ecut=   100.00 Ry     beta= 0.70
     Davidson diagonalization with overlap
     ethr =  3.70E-06,  avg # of iterations =  3.0

     total cpu time spent up to now is       84.8 secs

     total energy              =    -156.46791358 Ry
     estimated scf accuracy    <       0.00017815 Ry

     iteration #  6     ecut=   100.00 Ry     beta= 0.70
     Davidson diagonalization with overlap
     ethr =  3.71E-07,  avg # of iterations =  4.0

     total cpu time spent up to now is      100.1 secs

     total energy              =    -156.46797926 Ry
     estimated scf accuracy    <       0.00000137 Ry

     iteration #  7     ecut=   100.00 Ry     beta= 0.70
     Davidson diagonalization with overlap
     ethr =  2.85E-09,  avg # of iterations =  9.2

     total cpu time spent up to now is      133.1 secs

     total energy              =    -156.46799026 Ry
     estimated scf accuracy    <       0.00000118 Ry

     iteration #  8     ecut=   100.00 Ry     beta= 0.70
     Davidson diagonalization with overlap
     ethr =  2.45E-09,  avg # of iterations =  2.0

     total cpu time spent up to now is      146.4 secs

     total energy              =    -156.46799050 Ry
     estimated scf accuracy    <       0.00000002 Ry

     iteration #  9     ecut=   100.00 Ry     beta= 0.70
     Davidson diagonalization with overlap
     ethr =  3.54E-11,  avg # of iterations =  5.9

     total cpu time spent up to now is      166.7 secs

     total energy              =    -156.46799052 Ry
     estimated scf accuracy    <          3.5E-09 Ry

     iteration # 10     ecut=   100.00 Ry     beta= 0.70
     Davidson diagonalization with overlap
     ethr =  7.23E-12,  avg # of iterations =  2.7

     total cpu time spent up to now is      181.7 secs

     total energy              =    -156.46799052 Ry
     estimated scf accuracy    <          4.0E-10 Ry

     iteration # 11     ecut=   100.00 Ry     beta= 0.70
     Davidson diagonalization with overlap
     ethr =  8.34E-13,  avg # of iterations =  4.6

     total cpu time spent up to now is      197.3 secs

     End of self-consistent calculation

          k = 0.0000 0.0000 0.0000 ( 25305 PWs)   bands (ev):

   -24.2608 -24.2536  -9.7295  -9.6568  -9.4928  -9.4610  -9.4284  -9.3748
    -6.1185  -5.1929  -4.6111  -4.4487  -1.8514  -0.9480  -0.9393  -0.5478
    -0.1895  -0.1881  -0.1607  -0.0125   0.1389   0.5338   0.5594   0.5997

          k = 0.0000 0.0000 0.3611 ( 25282 PWs)   bands (ev):

   -24.2544 -24.2493  -9.6483  -9.6438  -9.6208  -9.5998  -9.4782  -9.4608
    -5.6635  -4.9697  -4.7538  -4.6464  -1.4999  -1.2478  -0.7880  -0.7252
    -0.5973  -0.4904  -0.1356   0.1407   0.3502   0.3695   0.4383   0.5887

          k = 0.0000 0.0000-0.7221 ( 25268 PWs)   bands (ev):

   -24.2465 -24.2465  -9.8329  -9.8328  -9.5255  -9.5254  -9.4885  -9.4885
    -4.9906  -4.9901  -4.8740  -4.8735  -1.2572  -1.2568  -1.2403  -1.2387
    -0.1957  -0.1952  -0.1642  -0.1622   0.3990   0.3992   0.4193   0.4199

          k = 0.0000 0.2438 0.0000 ( 25264 PWs)   bands (ev):

   -24.2597 -24.2546  -9.7040  -9.6310  -9.5359  -9.4903  -9.4203  -9.3825
    -5.9349  -5.1130  -4.8758  -4.5657  -1.5093  -1.1118  -1.0319  -0.2860
    -0.2847  -0.2482   0.0268   0.1367   0.2254   0.2266   0.4514   0.5313

          k = 0.0000 0.2438 0.3611 ( 25300 PWs)   bands (ev):

   -24.2536 -24.2500  -9.6840  -9.6479  -9.5846  -9.5765  -9.4848  -9.4789
    -5.5595  -5.0371  -4.7999  -4.6881  -1.3134  -1.2719  -1.0571  -0.5178
    -0.4724  -0.2771  -0.2700   0.1891   0.2775   0.3116   0.4174   0.4752

          k = 0.0000 0.2438-0.7221 ( 25314 PWs)   bands (ev):

   -24.2465 -24.2465  -9.8449  -9.8448  -9.5103  -9.5103  -9.4878  -9.4878
    -5.2190  -5.2189  -4.6379  -4.6379  -1.3625  -1.3618  -1.0820  -1.0813
    -0.1336  -0.1333  -0.1164  -0.1149   0.2403   0.2404   0.4138   0.4142

          k = 0.0000-0.4875 0.0000 ( 25262 PWs)   bands (ev):

   -24.2572 -24.2572  -9.6337  -9.6337  -9.5573  -9.5573  -9.4012  -9.4012
    -5.4684  -5.4684  -4.8271  -4.8271  -1.2269  -1.2269  -0.5831  -0.5831
    -0.3542  -0.3542   0.1419   0.1419   0.2572   0.2572   0.3906   0.3906

          k = 0.0000-0.4875 0.3611 ( 25314 PWs)   bands (ev):

   -24.2518 -24.2518  -9.6818  -9.6818  -9.5407  -9.5407  -9.5083  -9.5083
    -5.2981  -5.2981  -4.7687  -4.7687  -1.2530  -1.2530  -0.8396  -0.8396
    -0.2428  -0.2428   0.0337   0.0337   0.1933   0.1933   0.3972   0.3972

          k = 0.0000-0.4875-0.7221 ( 25392 PWs)   bands (ev):

   -24.2465 -24.2465  -9.8558  -9.8558  -9.4983  -9.4983  -9.4847  -9.4847
    -5.3321  -5.3321  -4.5173  -4.5173  -1.4468  -1.4468  -0.8604  -0.8604
    -0.1981  -0.1981  -0.0386  -0.0386   0.0565   0.0565   0.4501   0.4501

          k = 0.2500 0.0000 0.0000 ( 25305 PWs)   bands (ev):

   -24.2597 -24.2546  -9.6965  -9.6401  -9.5287  -9.5030  -9.4203  -9.3825
    -5.9426  -5.2398  -4.6408  -4.5896  -1.6673  -0.8430  -0.8293  -0.6763
    -0.1689  -0.1248  -0.0592   0.0085   0.1017   0.1266   0.5044   0.5469

          k = 0.2500 0.0000 0.3611 ( 25285 PWs)   bands (ev):

   -24.2536 -24.2500  -9.6754  -9.6581  -9.6099  -9.5555  -9.4989  -9.4681
    -5.5230  -4.9675  -4.7796  -4.7679  -1.4691  -1.2210  -1.0737  -0.5694
    -0.5331  -0.2903  -0.0567   0.0760   0.1987   0.3329   0.5198   0.5400

          k = 0.2500 0.0000-0.7221 ( 25298 PWs)   bands (ev):

   -24.2465 -24.2465  -9.8486  -9.8485  -9.5146  -9.5145  -9.4854  -9.4853
    -5.0290  -5.0285  -4.8086  -4.8083  -1.7055  -1.7050  -0.8276  -0.8271
    -0.2111  -0.2108   0.0852   0.0867   0.2167   0.2168   0.4557   0.4560

          k = 0.2500 0.2438 0.0000 ( 25291 PWs)   bands (ev):

   -24.2589 -24.2554  -9.7196  -9.6188  -9.5717  -9.4664  -9.4146  -9.3878
    -5.8055  -5.2027  -4.8583  -4.6332  -1.3903  -1.0729  -0.8440  -0.3958
    -0.3250  -0.2824   0.0129   0.1464   0.1732   0.2377   0.3226   0.4609

          k = 0.2500 0.2438 0.3611 ( 25310 PWs)   bands (ev):

   -24.2531 -24.2505  -9.6764  -9.6432  -9.6411  -9.5396  -9.5062  -9.4632
    -5.4352  -4.9912  -4.8795  -4.7648  -1.4282  -1.1828  -1.1008  -0.5599
    -0.3895  -0.2255  -0.1193   0.0890   0.1873   0.2985   0.4398   0.5203

          k = 0.2500 0.2438-0.7221 ( 25316 PWs)   bands (ev):

   -24.2465 -24.2464  -9.8548  -9.8348  -9.5314  -9.4994  -9.4915  -9.4860
    -5.2211  -5.0684  -4.7634  -4.6074  -1.6813  -1.6107  -0.8872  -0.8066
    -0.2538  -0.2532   0.0589   0.1101   0.2459   0.2739   0.4024   0.4422

          k = 0.2500-0.4875 0.0000 ( 25280 PWs)   bands (ev):

   -24.2571 -24.2571  -9.6973  -9.6973  -9.4950  -9.4950  -9.4009  -9.4009
    -5.4556  -5.4556  -4.8338  -4.8338  -1.1268  -1.1268  -0.5951  -0.5951
    -0.3880  -0.3880   0.0759   0.0759   0.2903   0.2903   0.3252   0.3252

          k = 0.2500-0.4875 0.3611 ( 25282 PWs)   bands (ev):

   -24.2518 -24.2518  -9.6728  -9.6728  -9.5895  -9.5895  -9.4745  -9.4745
    -5.2146  -5.2146  -4.8366  -4.8366  -1.3345  -1.3345  -0.7835  -0.7835
    -0.2513  -0.2513   0.0607   0.0607   0.1961   0.1961   0.4138   0.4138

          k = 0.2500-0.4875-0.7221 ( 25316 PWs)   bands (ev):

   -24.2464 -24.2464  -9.8419  -9.8419  -9.5169  -9.5169  -9.4906  -9.4906
    -5.2362  -5.2362  -4.5867  -4.5867  -1.5771  -1.5771  -0.9121  -0.9121
    -0.1472  -0.1472  -0.0257  -0.0257   0.2567   0.2567   0.4297   0.4297

          k =-0.5000 0.0000 0.0000 ( 25216 PWs)   bands (ev):

   -24.2571 -24.2571  -9.6170  -9.6170  -9.5809  -9.5809  -9.4012  -9.4012
    -5.5382  -5.5382  -4.6856  -4.6856  -1.2590  -1.2590  -0.4829  -0.4829
    -0.1317  -0.1317  -0.1016  -0.1016  -0.0079  -0.0079   0.4036   0.4036

          k =-0.5000 0.0000 0.3611 ( 25318 PWs)   bands (ev):

   -24.2518 -24.2518  -9.6842  -9.6842  -9.5589  -9.5589  -9.4968  -9.4968
    -5.1910  -5.1910  -4.8301  -4.8301  -1.3867  -1.3867  -0.8381  -0.8381
    -0.2532  -0.2532  -0.0680  -0.0680   0.2960   0.2960   0.5043   0.5043

          k =-0.5000 0.0000-0.7221 ( 25328 PWs)   bands (ev):

   -24.2464 -24.2464  -9.8631  -9.8631  -9.5062  -9.5062  -9.4807  -9.4807
    -5.0550  -5.0550  -4.7534  -4.7534  -1.9096  -1.9096  -0.5613  -0.5613
    -0.2216  -0.2216  -0.0498  -0.0498   0.3902   0.3902   0.4252   0.4252

          k =-0.5000 0.2438 0.0000 ( 25336 PWs)   bands (ev):

   -24.2571 -24.2571  -9.6962  -9.6962  -9.4996  -9.4996  -9.4009  -9.4009
    -5.4955  -5.4955  -4.7583  -4.7583  -1.1529  -1.1529  -0.4892  -0.4892
    -0.3237  -0.3237  -0.1384  -0.1384   0.2046   0.2046   0.3805   0.3805

          k =-0.5000 0.2438 0.3611 ( 25278 PWs)   bands (ev):

   -24.2518 -24.2518  -9.6743  -9.6743  -9.5936  -9.5936  -9.4734  -9.4734
    -5.1454  -5.1454  -4.8828  -4.8828  -1.3896  -1.3896  -0.8157  -0.8157
    -0.2177  -0.2177  -0.0204  -0.0204   0.2886   0.2886   0.4373   0.4373

          k =-0.5000 0.2438-0.7221 ( 25324 PWs)   bands (ev):

   -24.2464 -24.2464  -9.8459  -9.8459  -9.5192  -9.5192  -9.4899  -9.4899
    -5.0851  -5.0851  -4.7171  -4.7171  -1.8161  -1.8161  -0.7555  -0.7555
    -0.1774  -0.1774   0.0136   0.0136   0.3424   0.3424   0.4750   0.4750

          k =-0.5000-0.4875 0.0000 ( 25320 PWs)   bands (ev):

   -24.2571 -24.2571  -9.7347  -9.7347  -9.4590  -9.4590  -9.4007  -9.4007
    -5.4441  -5.4441  -4.8386  -4.8386  -0.9978  -0.9978  -0.6413  -0.6413
    -0.4187  -0.4187   0.0533   0.0533   0.2206   0.2206   0.3204   0.3204

          k =-0.5000-0.4875 0.3611 ( 25300 PWs)   bands (ev):

   -24.2518 -24.2518  -9.6561  -9.6561  -9.6276  -9.6276  -9.4592  -9.4592
    -5.0654  -5.0654  -4.9696  -4.9696  -1.3742  -1.3742  -0.8600  -0.8600
    -0.0716  -0.0716   0.0702   0.0702   0.2097   0.2097   0.3352   0.3352

          k =-0.5000-0.4875-0.7221 ( 25296 PWs)   bands (ev):

   -24.2464 -24.2464  -9.8263  -9.8263  -9.5379  -9.5379  -9.4956  -9.4956
    -5.1108  -5.1108  -4.6852  -4.6852  -1.6702  -1.6702  -1.0310  -1.0310
     0.0343   0.0343   0.0830   0.0830   0.2268   0.2268   0.4427   0.4427

     highest occupied level (ev):     0.5997

!    total energy              =    -156.46799052 Ry
     estimated scf accuracy    <          4.8E-11 Ry

     The total energy is the sum of the following terms:
     one-electron contribution =     -24.11064316 Ry
     hartree contribution      =      25.88388565 Ry
     xc contribution           =     -48.89852530 Ry
     ewald contribution        =    -109.34270772 Ry

     convergence has been achieved in  11 iterations

     Forces acting on atoms (cartesian axes, Ry/au):

     atom    1 type  2   force =     0.00000000    0.00000000    0.00001056
     atom    2 type  2   force =     0.00000000    0.00000000   -0.00001056
     atom    3 type  1   force =     0.00028747    0.00144378   -0.00001451
     atom    4 type  1   force =    -0.00028747   -0.00144378   -0.00001451
     atom    5 type  1   force =     0.00028747   -0.00144378    0.00001451
     atom    6 type  1   force =    -0.00028747    0.00144378    0.00001451
     atom    7 type  3   force =     0.01266891   -0.00322057   -0.00002024
     atom    8 type  3   force =    -0.01266891    0.00322057   -0.00002024
     atom    9 type  3   force =     0.01266891    0.00322057    0.00002024
     atom   10 type  3   force =    -0.01266891   -0.00322057    0.00002024
     atom   11 type  3   force =    -0.00837242   -0.01012833    0.00000770
     atom   12 type  3   force =     0.00837242    0.01012833    0.00000770
     atom   13 type  3   force =    -0.00837242    0.01012833   -0.00000770
     atom   14 type  3   force =     0.00837242   -0.01012833   -0.00000770
     atom   15 type  3   force =    -0.00155385    0.00744451    0.01130767
     atom   16 type  3   force =     0.00155385   -0.00744451    0.01130767
     atom   17 type  3   force =    -0.00155385   -0.00744451   -0.01130767
     atom   18 type  3   force =     0.00155385    0.00744451   -0.01130767
     atom   19 type  3   force =     0.00161020   -0.00746442   -0.01131361
     atom   20 type  3   force =    -0.00161020    0.00746442   -0.01131361
     atom   21 type  3   force =     0.00161020    0.00746442    0.01131361
     atom   22 type  3   force =    -0.00161020   -0.00746442    0.01131361

     Total force =     0.053581     Total SCF correction =     0.000004


     Computing stress (Cartesian axis) and pressure

          total   stress  (Ry/bohr**3)                   (kbar)     P=      -27.40
  -0.00017343   0.00000000   0.00000000          -25.51        0.00        0.00
   0.00000000  -0.00017689   0.00000000            0.00      -26.02        0.00
   0.00000000   0.00000000  -0.00020841            0.00        0.00      -30.66

     Volume is kept fixed: isostatic pressure set to zero

     BFGS Geometry Optimization
     Energy error            =      0.0E+00 Ry
     Gradient error          =      1.3E-02 Ry/Bohr
     Cell gradient error     =      3.3E+00 kbar

     number of scf cycles    =   1
     number of bfgs steps    =   0

     enthalpy           new  =    -156.4679905238 Ry

     new trust radius        =       0.0136494756 bohr
ibrav =      8
 celldm(1) =     12.83022265
 celldm(2) =      1.02548219
 celldm(3) =      0.69178880
Input lattice vectors:
     1.00032045     0.00000000     0.00000000
     0.00000000     1.02581081     0.00000000
     0.00000000     0.00000000     0.69201049
New lattice vectors in INITIAL alat:
     1.00032045     0.00000000     0.00000000
     0.00000000     1.02581081     0.00000000
     0.00000000     0.00000000     0.69201049
New lattice vectors in NEW alat (for information only):
     1.00000000     0.00000000     0.00000000
     0.00000000     1.02548219     0.00000000
     0.00000000     0.00000000     0.69178880
Discrepancy in bohr =     0.000000    0.000000    0.000000
     new conv_thr            =            1.0E-10 Ry

     new unit-cell volume =   1498.31880 a.u.^3 (   222.02794 Ang^3 )
     density =      2.49816 g/cm^3

CELL_PARAMETERS (alat= 12.82611250)
   1.000320452   0.000000000   0.000000000
   0.000000000   1.025810808   0.000000000
   0.000000000   0.000000000   0.692010488

ATOMIC_POSITIONS (crystal)
Ba               0.5000000000        0.5000000000        0.5001003552
Ba               0.0000000000        0.0000000000        0.9998996448
B                0.6102794291        0.2393121393        0.0000640233
B                0.3897205709        0.7606878607        0.0000640233
B                0.1102794291        0.2606878607        0.4999359767
B                0.8897205709        0.7393121393        0.4999359767
H                0.4350849958        0.2919108944        0.0002286546
H                0.5649150042        0.7080891056        0.0002286546
H                0.9350849958        0.2080891056        0.4997713454
H                0.0649150042        0.7919108944        0.4997713454
H                0.7214075043        0.3827850330       -0.0000075049
H                0.2785924957        0.6172149670       -0.0000075049
H                0.2214075043        0.1172149670        0.5000075049
H                0.7785924957        0.8827850330        0.5000075049
H                0.6391287770        0.1426603414        0.7817716964
H                0.3608712230        0.8573396586        0.7817716964
H                0.1391287770        0.3573396586        0.7182283036
H                0.8608712230        0.6426603414        0.7182283036
H                0.3606583718        0.8573884546        0.2182508968
H                0.6393416282        0.1426115454        0.2182508968
H                0.8606583718        0.6426115454        0.2817491032
H                0.1393416282        0.3573884546        0.2817491032



     Writing config-only to output data dir ./pwscf.save/ :
     XML data file
     NEW-OLD atomic charge density approx. for the potential

     total cpu time spent up to now is      210.4 secs

     Self-consistent Calculation

     iteration #  1     ecut=   100.00 Ry     beta= 0.70
     Davidson diagonalization with overlap
     ethr =  1.00E-06,  avg # of iterations =  4.0

     total cpu time spent up to now is      229.5 secs

     total energy              =    -156.47013331 Ry
     estimated scf accuracy    <       0.00070194 Ry

     iteration #  2     ecut=   100.00 Ry     beta= 0.70
     Davidson diagonalization with overlap
     ethr =  1.46E-06,  avg # of iterations =  2.0

     total cpu time spent up to now is      242.8 secs

     total energy              =    -156.47034019 Ry
     estimated scf accuracy    <       0.00016331 Ry

     iteration #  3     ecut=   100.00 Ry     beta= 0.70
     Davidson diagonalization with overlap
     ethr =  3.40E-07,  avg # of iterations =  2.0

     total cpu time spent up to now is      256.1 secs

     total energy              =    -156.47036163 Ry
     estimated scf accuracy    <       0.00000235 Ry

     iteration #  4     ecut=   100.00 Ry     beta= 0.70
     Davidson diagonalization with overlap
     ethr =  4.89E-09,  avg # of iterations =  3.0

     total cpu time spent up to now is      272.1 secs

     total energy              =    -156.47036286 Ry
     estimated scf accuracy    <       0.00000171 Ry

     iteration #  5     ecut=   100.00 Ry     beta= 0.70
     Davidson diagonalization with overlap
     ethr =  3.57E-09,  avg # of iterations =  2.0

     total cpu time spent up to now is      285.4 secs

     total energy              =    -156.47036297 Ry
     estimated scf accuracy    <       0.00000012 Ry

     iteration #  6     ecut=   100.00 Ry     beta= 0.70
     Davidson diagonalization with overlap
     ethr =  2.44E-10,  avg # of iterations =  3.0

     total cpu time spent up to now is      299.3 secs

     total energy              =    -156.47036302 Ry
     estimated scf accuracy    <       0.00000002 Ry

     iteration #  7     ecut=   100.00 Ry     beta= 0.70
     Davidson diagonalization with overlap
     ethr =  4.95E-11,  avg # of iterations =  2.6

     total cpu time spent up to now is      312.8 secs

     total energy              =    -156.47036303 Ry
     estimated scf accuracy    <          8.0E-10 Ry

     iteration #  8     ecut=   100.00 Ry     beta= 0.70
     Davidson diagonalization with overlap
     ethr =  1.67E-12,  avg # of iterations =  5.8

     total cpu time spent up to now is      333.7 secs

     End of self-consistent calculation

          k = 0.0000 0.0000 0.0000 ( 25305 PWs)   bands (ev):

   -24.2730 -24.2659  -9.7419  -9.6686  -9.5044  -9.4724  -9.4393  -9.3860
    -6.1425  -5.2315  -4.6481  -4.4880  -1.8508  -0.9629  -0.9463  -0.5707
    -0.2082  -0.1971  -0.1743  -0.0313   0.1222   0.5071   0.5325   0.5711

          k = 0.0000 0.0000 0.3613 ( 25282 PWs)   bands (ev):

   -24.2666 -24.2615  -9.6603  -9.6560  -9.6332  -9.6113  -9.4896  -9.4721
    -5.6889  -5.0069  -4.7922  -4.6867  -1.4976  -1.2505  -0.7911  -0.7409
    -0.6114  -0.5053  -0.1549   0.1176   0.3255   0.3438   0.4152   0.5616

          k = 0.0000 0.0000-0.7225 ( 25268 PWs)   bands (ev):

   -24.2587 -24.2587  -9.8461  -9.8459  -9.5366  -9.5366  -9.4999  -9.4999
    -5.0224  -5.0219  -4.9145  -4.9140  -1.2578  -1.2574  -1.2400  -1.2385
    -0.2166  -0.2162  -0.1831  -0.1811   0.3744   0.3746   0.3931   0.3937

          k = 0.0000 0.2437 0.0000 ( 25264 PWs)   bands (ev):

   -24.2719 -24.2669  -9.7163  -9.6429  -9.5475  -9.5017  -9.4314  -9.3937
    -5.9599  -5.1517  -4.9088  -4.6048  -1.5132  -1.1186  -1.0431  -0.3018
    -0.3007  -0.2721   0.0115   0.1185   0.2030   0.2070   0.4251   0.5050

          k = 0.0000 0.2437 0.3613 ( 25300 PWs)   bands (ev):

   -24.2658 -24.2623  -9.6960  -9.6601  -9.5967  -9.5881  -9.4963  -9.4902
    -5.5864  -5.0734  -4.8368  -4.7276  -1.3136  -1.2742  -1.0627  -0.5298
    -0.4874  -0.2983  -0.2862   0.1662   0.2536   0.2866   0.3932   0.4499

          k = 0.0000 0.2437-0.7225 ( 25314 PWs)   bands (ev):

   -24.2587 -24.2587  -9.8580  -9.8579  -9.5214  -9.5214  -9.4992  -9.4992
    -5.2546  -5.2546  -4.6742  -4.6742  -1.3626  -1.3620  -1.0834  -1.0827
    -0.1541  -0.1539  -0.1367  -0.1351   0.2172   0.2173   0.3877   0.3880

          k = 0.0000-0.4874 0.0000 ( 25262 PWs)   bands (ev):

   -24.2694 -24.2694  -9.6461  -9.6461  -9.5685  -9.5685  -9.4123  -9.4123
    -5.4967  -5.4967  -4.8655  -4.8655  -1.2329  -1.2329  -0.5982  -0.5982
    -0.3696  -0.3696   0.1160   0.1160   0.2383   0.2383   0.3678   0.3678

          k = 0.0000-0.4874 0.3613 ( 25314 PWs)   bands (ev):

   -24.2640 -24.2640  -9.6939  -9.6939  -9.5528  -9.5528  -9.5194  -9.5194
    -5.3292  -5.3292  -4.8065  -4.8065  -1.2549  -1.2549  -0.8484  -0.8484
    -0.2615  -0.2615   0.0145   0.0145   0.1679   0.1679   0.3728   0.3728

          k = 0.0000-0.4874-0.7225 ( 25392 PWs)   bands (ev):

   -24.2586 -24.2586  -9.8688  -9.8688  -9.5094  -9.5094  -9.4962  -9.4962
    -5.3681  -5.3681  -4.5530  -4.5530  -1.4467  -1.4467  -0.8622  -0.8622
    -0.2200  -0.2200  -0.0571  -0.0571   0.0330   0.0330   0.4236   0.4236

          k = 0.2499 0.0000 0.0000 ( 25305 PWs)   bands (ev):

   -24.2719 -24.2669  -9.7089  -9.6518  -9.5404  -9.5144  -9.4314  -9.3937
    -5.9680  -5.2759  -4.6782  -4.6278  -1.6680  -0.8521  -0.8405  -0.6937
    -0.1827  -0.1441  -0.0757  -0.0111   0.0832   0.1044   0.4776   0.5183

          k = 0.2499 0.0000 0.3613 ( 25285 PWs)   bands (ev):

   -24.2658 -24.2622  -9.6874  -9.6704  -9.6218  -9.5672  -9.5102  -9.4795
    -5.5497  -5.0034  -4.8181  -4.8069  -1.4660  -1.2271  -1.0749  -0.5837
    -0.5503  -0.3070  -0.0784   0.0544   0.1760   0.3097   0.4928   0.5150

          k = 0.2499 0.0000-0.7225 ( 25298 PWs)   bands (ev):

   -24.2586 -24.2586  -9.8617  -9.8616  -9.5257  -9.5256  -9.4968  -9.4967
    -5.0662  -5.0658  -4.8440  -4.8436  -1.7023  -1.7018  -0.8323  -0.8319
    -0.2315  -0.2312   0.0645   0.0659   0.1936   0.1937   0.4296   0.4299

          k = 0.2499 0.2437 0.0000 ( 25291 PWs)   bands (ev):

   -24.2712 -24.2676  -9.7317  -9.6310  -9.5830  -9.4779  -9.4256  -9.3990
    -5.8322  -5.2384  -4.8931  -4.6704  -1.3956  -1.0816  -0.8563  -0.4116
    -0.3399  -0.2980  -0.0091   0.1279   0.1502   0.2183   0.2971   0.4360

          k = 0.2499 0.2437 0.3613 ( 25310 PWs)   bands (ev):

   -24.2653 -24.2628  -9.6885  -9.6553  -9.6528  -9.5517  -9.5174  -9.4746
    -5.4634  -5.0278  -4.9150  -4.8035  -1.4271  -1.1842  -1.1080  -0.5746
    -0.4059  -0.2433  -0.1400   0.0684   0.1638   0.2741   0.4148   0.4954

          k = 0.2499 0.2437-0.7225 ( 25316 PWs)   bands (ev):

   -24.2586 -24.2586  -9.8680  -9.8478  -9.5425  -9.5105  -9.5028  -9.4974
    -5.2579  -5.1048  -4.7995  -4.6430  -1.6783  -1.6074  -0.8931  -0.8112
    -0.2738  -0.2730   0.0392   0.0888   0.2218   0.2496   0.3779   0.4150

          k = 0.2499-0.4874 0.0000 ( 25280 PWs)   bands (ev):

   -24.2694 -24.2694  -9.7093  -9.7093  -9.5066  -9.5066  -9.4121  -9.4121
    -5.4860  -5.4860  -4.8697  -4.8697  -1.1358  -1.1358  -0.6100  -0.6100
    -0.4027  -0.4027   0.0549   0.0549   0.2706   0.2706   0.3006   0.3006

          k = 0.2499-0.4874 0.3613 ( 25282 PWs)   bands (ev):

   -24.2640 -24.2640  -9.6848  -9.6848  -9.6014  -9.6014  -9.4859  -9.4859
    -5.2466  -5.2466  -4.8735  -4.8735  -1.3352  -1.3352  -0.7951  -0.7951
    -0.2686  -0.2686   0.0395   0.0395   0.1727   0.1727   0.3893   0.3893

          k = 0.2499-0.4874-0.7225 ( 25316 PWs)   bands (ev):

   -24.2586 -24.2586  -9.8550  -9.8550  -9.5280  -9.5280  -9.5020  -9.5020
    -5.2727  -5.2727  -4.6225  -4.6225  -1.5741  -1.5741  -0.9179  -0.9179
    -0.1682  -0.1682  -0.0447  -0.0447   0.2323   0.2323   0.4039   0.4039

          k =-0.4998 0.0000 0.0000 ( 25216 PWs)   bands (ev):

   -24.2694 -24.2694  -9.6294  -9.6294  -9.5920  -9.5920  -9.4123  -9.4123
    -5.5677  -5.5677  -4.7239  -4.7239  -1.2629  -1.2629  -0.4974  -0.4974
    -0.1453  -0.1453  -0.1243  -0.1243  -0.0281  -0.0281   0.3767   0.3767

          k =-0.4998 0.0000 0.3613 ( 25318 PWs)   bands (ev):

   -24.2640 -24.2640  -9.6963  -9.6963  -9.5707  -9.5707  -9.5081  -9.5081
    -5.2216  -5.2216  -4.8692  -4.8692  -1.3854  -1.3854  -0.8484  -0.8484
    -0.2726  -0.2726  -0.0886  -0.0886   0.2733   0.2733   0.4781   0.4781

          k =-0.4998 0.0000-0.7225 ( 25328 PWs)   bands (ev):

   -24.2586 -24.2586  -9.8762  -9.8762  -9.5173  -9.5173  -9.4921  -9.4921
    -5.0944  -5.0944  -4.7871  -4.7871  -1.9050  -1.9050  -0.5678  -0.5678
    -0.2419  -0.2419  -0.0710  -0.0710   0.3676   0.3676   0.3983   0.3983

          k =-0.4998 0.2437 0.0000 ( 25336 PWs)   bands (ev):

   -24.2694 -24.2694  -9.7081  -9.7081  -9.5112  -9.5112  -9.4121  -9.4121
    -5.5263  -5.5263  -4.7942  -4.7942  -1.1609  -1.1609  -0.5035  -0.5035
    -0.3383  -0.3383  -0.1589  -0.1589   0.1850   0.1850   0.3544   0.3544

          k =-0.4998 0.2437 0.3613 ( 25278 PWs)   bands (ev):

   -24.2640 -24.2640  -9.6863  -9.6863  -9.6055  -9.6055  -9.4848  -9.4848
    -5.1770  -5.1770  -4.9205  -4.9205  -1.3892  -1.3892  -0.8271  -0.8271
    -0.2366  -0.2366  -0.0411  -0.0411   0.2653   0.2653   0.4126   0.4126

          k =-0.4998 0.2437-0.7225 ( 25324 PWs)   bands (ev):

   -24.2586 -24.2586  -9.8590  -9.8590  -9.5303  -9.5303  -9.5013  -9.5013
    -5.1233  -5.1233  -4.7520  -4.7520  -1.8114  -1.8114  -0.7625  -0.7625
    -0.1969  -0.1969  -0.0084  -0.0084   0.3187   0.3187   0.4492   0.4492

          k =-0.4998-0.4874 0.0000 ( 25320 PWs)   bands (ev):

   -24.2694 -24.2694  -9.7466  -9.7466  -9.4706  -9.4706  -9.4118  -9.4118
    -5.4766  -5.4766  -4.8717  -4.8717  -1.0128  -1.0128  -0.6512  -0.6512
    -0.4329  -0.4329   0.0320   0.0320   0.1977   0.1977   0.3001   0.3001

          k =-0.4998-0.4874 0.3613 ( 25300 PWs)   bands (ev):

   -24.2640 -24.2640  -9.6676  -9.6676  -9.6399  -9.6399  -9.4706  -9.4706
    -5.0989  -5.0989  -5.0050  -5.0050  -1.3743  -1.3743  -0.8721  -0.8721
    -0.0901  -0.0901   0.0463   0.0463   0.1870   0.1870   0.3136   0.3136

          k =-0.4998-0.4874-0.7225 ( 25296 PWs)   bands (ev):

   -24.2586 -24.2586  -9.8395  -9.8395  -9.5490  -9.5490  -9.5069  -9.5069
    -5.1481  -5.1481  -4.7209  -4.7209  -1.6655  -1.6655  -1.0374  -1.0374
     0.0124   0.0124   0.0590   0.0590   0.2049   0.2049   0.4184   0.4184

     highest occupied level (ev):     0.5711

!    total energy              =    -156.47036303 Ry
     estimated scf accuracy    <          2.0E-11 Ry

     The total energy is the sum of the following terms:
     one-electron contribution =     -24.50647594 Ry
     hartree contribution      =      26.08151858 Ry
     xc contribution           =     -48.94781048 Ry
     ewald contribution        =    -109.09759519 Ry

     convergence has been achieved in   8 iterations

     Forces acting on atoms (cartesian axes, Ry/au):

     atom    1 type  2   force =     0.00000000    0.00000000    0.00000874
     atom    2 type  2   force =     0.00000000    0.00000000   -0.00000874
     atom    3 type  1   force =     0.00038408    0.00159459   -0.00001078
     atom    4 type  1   force =    -0.00038408   -0.00159459   -0.00001078
     atom    5 type  1   force =     0.00038408   -0.00159459    0.00001078
     atom    6 type  1   force =    -0.00038408    0.00159459    0.00001078
     atom    7 type  3   force =     0.00822718   -0.00189893   -0.00001798
     atom    8 type  3   force =    -0.00822718    0.00189893   -0.00001798
     atom    9 type  3   force =     0.00822718    0.00189893    0.00001798
     atom   10 type  3   force =    -0.00822718   -0.00189893    0.00001798
     atom   11 type  3   force =    -0.00544581   -0.00620911    0.00000557
     atom   12 type  3   force =     0.00544581    0.00620911    0.00000557
     atom   13 type  3   force =    -0.00544581    0.00620911   -0.00000557
     atom   14 type  3   force =     0.00544581   -0.00620911   -0.00000557
     atom   15 type  3   force =    -0.00079056    0.00480115    0.00702804
     atom   16 type  3   force =     0.00079056   -0.00480115    0.00702804
     atom   17 type  3   force =    -0.00079056   -0.00480115   -0.00702804
     atom   18 type  3   force =     0.00079056    0.00480115   -0.00702804
     atom   19 type  3   force =     0.00083892   -0.00481861   -0.00703648
     atom   20 type  3   force =    -0.00083892    0.00481861   -0.00703648
     atom   21 type  3   force =     0.00083892    0.00481861    0.00703648
     atom   22 type  3   force =    -0.00083892   -0.00481861    0.00703648

     Total force =     0.033982     Total SCF correction =     0.000001


     Computing stress (Cartesian axis) and pressure

          total   stress  (Ry/bohr**3)                   (kbar)     P=      -21.63
  -0.00013718   0.00000000   0.00000000          -20.18        0.00        0.00
   0.00000000  -0.00013923   0.00000000            0.00      -20.48        0.00
   0.00000000   0.00000000  -0.00016460            0.00        0.00      -24.21

     Volume is kept fixed: isostatic pressure set to zero
     Energy error            =      2.4E-03 Ry
     Gradient error          =      8.2E-03 Ry/Bohr
     Cell gradient error     =      2.6E+00 kbar

     number of scf cycles    =   2
     number of bfgs steps    =   1

     enthalpy           old  =    -156.4679905238 Ry
     enthalpy           new  =    -156.4703630284 Ry

     CASE: enthalpy          _new < enthalpy          _old

     new trust radius        =       0.0204679438 bohr
ibrav =      8
 celldm(1) =     12.83775448
 celldm(2) =      1.02535645
 celldm(3) =      0.69065660
Input lattice vectors:
     1.00090768     0.00000000     0.00000000
     0.00000000     1.02628715     0.00000000
     0.00000000     0.00000000     0.69128349
New lattice vectors in INITIAL alat:
     1.00090768     0.00000000     0.00000000
     0.00000000     1.02628715     0.00000000
     0.00000000     0.00000000     0.69128349
New lattice vectors in NEW alat (for information only):
     1.00000000     0.00000000     0.00000000
     0.00000000     1.02535645     0.00000000
     0.00000000     0.00000000     0.69065660
Discrepancy in bohr =     0.000000    0.000000    0.000000
     new conv_thr            =            1.0E-10 Ry

     new unit-cell volume =   1498.31880 a.u.^3 (   222.02794 Ang^3 )
     density =      2.49816 g/cm^3

CELL_PARAMETERS (alat= 12.82611250)
   1.000907678   0.000000000   0.000000000
   0.000000000   1.026287146   0.000000000
   0.000000000   0.000000000   0.691283490

ATOMIC_POSITIONS (crystal)
Ba               0.5000000000        0.5000000000        0.5001027023
Ba               0.0000000000        0.0000000000        0.9998972977
B                0.6103508073        0.2396012264        0.0000611270
B                0.3896491927        0.7603987736        0.0000611270
B                0.1103508073        0.2603987736        0.4999388730
B                0.8896491927        0.7396012264        0.4999388730
H                0.4366181831        0.2915656826        0.0002238278
H                0.5633818169        0.7084343174        0.0002238278
H                0.9366181831        0.2084343174        0.4997761722
H                0.0633818169        0.7915656826        0.4997761722
H                0.7203926519        0.3816565140       -0.0000060087
H                0.2796073481        0.6183434860       -0.0000060087
H                0.2203926519        0.1183434860        0.5000060087
H                0.7796073481        0.8816565140        0.5000060087
H                0.6389812317        0.1435327151        0.7836620879
H                0.3610187683        0.8564672849        0.7836620879
H                0.1389812317        0.3564672849        0.7163379121
H                0.8610187683        0.6435327151        0.7163379121
H                0.3608149172        0.8565129139        0.2163582425
H                0.6391850828        0.1434870861        0.2163582425
H                0.8608149172        0.6434870861        0.2836417575
H                0.1391850828        0.3565129139        0.2836417575



     Writing config-only to output data dir ./pwscf.save/ :
     XML data file
     NEW-OLD atomic charge density approx. for the potential

     total cpu time spent up to now is      346.8 secs

     Self-consistent Calculation

     iteration #  1     ecut=   100.00 Ry     beta= 0.70
     Davidson diagonalization with overlap
     ethr =  1.00E-06,  avg # of iterations =  4.4

     total cpu time spent up to now is      366.8 secs

     total energy              =    -156.47137043 Ry
     estimated scf accuracy    <       0.00166012 Ry

     iteration #  2     ecut=   100.00 Ry     beta= 0.70
     Davidson diagonalization with overlap
     ethr =  3.46E-06,  avg # of iterations =  2.0

     total cpu time spent up to now is      380.1 secs

     total energy              =    -156.47186325 Ry
     estimated scf accuracy    <       0.00038482 Ry

     iteration #  3     ecut=   100.00 Ry     beta= 0.70
     Davidson diagonalization with overlap
     ethr =  8.02E-07,  avg # of iterations =  2.0

     total cpu time spent up to now is      393.3 secs

     total energy              =    -156.47191317 Ry
     estimated scf accuracy    <       0.00000591 Ry

     iteration #  4     ecut=   100.00 Ry     beta= 0.70
     Davidson diagonalization with overlap
     ethr =  1.23E-08,  avg # of iterations =  3.0

     total cpu time spent up to now is      409.1 secs

     total energy              =    -156.47191613 Ry
     estimated scf accuracy    <       0.00000399 Ry

     iteration #  5     ecut=   100.00 Ry     beta= 0.70
     Davidson diagonalization with overlap
     ethr =  8.31E-09,  avg # of iterations =  2.0

     total cpu time spent up to now is      422.4 secs

     total energy              =    -156.47191647 Ry
     estimated scf accuracy    <       0.00000021 Ry

     iteration #  6     ecut=   100.00 Ry     beta= 0.70
     Davidson diagonalization with overlap
     ethr =  4.42E-10,  avg # of iterations =  3.1

     total cpu time spent up to now is      436.9 secs

     total energy              =    -156.47191657 Ry
     estimated scf accuracy    <       0.00000006 Ry

     iteration #  7     ecut=   100.00 Ry     beta= 0.70
     Davidson diagonalization with overlap
     ethr =  1.27E-10,  avg # of iterations =  2.1

     total cpu time spent up to now is      450.2 secs

     total energy              =    -156.47191658 Ry
     estimated scf accuracy    <          1.8E-09 Ry

     iteration #  8     ecut=   100.00 Ry     beta= 0.70
     Davidson diagonalization with overlap
     ethr =  3.65E-12,  avg # of iterations =  6.1

     total cpu time spent up to now is      472.6 secs

     End of self-consistent calculation

          k = 0.0000 0.0000 0.0000 ( 25305 PWs)   bands (ev):

   -24.2910 -24.2839  -9.7606  -9.6861  -9.5217  -9.4892  -9.4556  -9.4027
    -6.1797  -5.2905  -4.7045  -4.5483  -1.8521  -0.9872  -0.9584  -0.6067
    -0.2344  -0.2148  -0.1908  -0.0569   0.1013   0.4665   0.4889   0.5245

          k = 0.0000 0.0000 0.3616 ( 25282 PWs)   bands (ev):

   -24.2845 -24.2795  -9.6780  -9.6747  -9.6522  -9.6283  -9.5065  -9.4889
    -5.7275  -5.0630  -4.8512  -4.7487  -1.4954  -1.2558  -0.7976  -0.7663
    -0.6315  -0.5255  -0.1833   0.0833   0.2854   0.3041   0.3804   0.5192

          k = 0.0000 0.0000-0.7233 ( 25268 PWs)   bands (ev):

   -24.2765 -24.2765  -9.8666  -9.8665  -9.5529  -9.5529  -9.5167  -9.5167
    -5.0699  -5.0695  -4.9769  -4.9764  -1.2575  -1.2570  -1.2410  -1.2396
    -0.2505  -0.2501  -0.2117  -0.2098   0.3367   0.3368   0.3531   0.3536

          k = 0.0000 0.2436 0.0000 ( 25264 PWs)   bands (ev):

   -24.2899 -24.2849  -9.7349  -9.6607  -9.5646  -9.5186  -9.4477  -9.4103
    -5.9987  -5.2111  -4.9589  -4.6646  -1.5211  -1.1306  -1.0624  -0.3245
    -0.3194  -0.3096  -0.0161   0.0943   0.1643   0.1831   0.3848   0.4620

          k = 0.0000 0.2436 0.3616 ( 25300 PWs)   bands (ev):

   -24.2838 -24.2802  -9.7141  -9.6787  -9.6149  -9.6053  -9.5134  -9.5068
    -5.6273  -5.1281  -4.8935  -4.7881  -1.3150  -1.2789  -1.0734  -0.5460
    -0.5096  -0.3306  -0.3102   0.1317   0.2159   0.2478   0.3566   0.4100

          k = 0.0000 0.2436-0.7233 ( 25314 PWs)   bands (ev):

   -24.2765 -24.2765  -9.8784  -9.8783  -9.5376  -9.5376  -9.5161  -9.5161
    -5.3088  -5.3087  -4.7296  -4.7295  -1.3639  -1.3633  -1.0845  -1.0838
    -0.1874  -0.1873  -0.1671  -0.1654   0.1823   0.1824   0.3467   0.3470

          k = 0.0000-0.4872 0.0000 ( 25262 PWs)   bands (ev):

   -24.2874 -24.2874  -9.6646  -9.6646  -9.5851  -9.5851  -9.4288  -9.4288
    -5.5407  -5.5407  -4.9238  -4.9238  -1.2435  -1.2435  -0.6240  -0.6240
    -0.3894  -0.3894   0.0753   0.0753   0.2131   0.2131   0.3301   0.3301

          k = 0.0000-0.4872 0.3616 ( 25314 PWs)   bands (ev):

   -24.2820 -24.2820  -9.7122  -9.7122  -9.5710  -9.5710  -9.5359  -9.5359
    -5.3765  -5.3765  -4.8643  -4.8643  -1.2590  -1.2590  -0.8623  -0.8623
    -0.2888  -0.2888  -0.0135  -0.0135   0.1276   0.1276   0.3351   0.3351

          k = 0.0000-0.4872-0.7233 ( 25392 PWs)   bands (ev):

   -24.2765 -24.2765  -9.8891  -9.8891  -9.5256  -9.5256  -9.5131  -9.5131
    -5.4227  -5.4227  -4.6074  -4.6074  -1.4478  -1.4478  -0.8634  -0.8634
    -0.2545  -0.2545  -0.0862  -0.0862  -0.0022  -0.0022   0.3815   0.3815

          k = 0.2498 0.0000 0.0000 ( 25305 PWs)   bands (ev):

   -24.2899 -24.2849  -9.7275  -9.6693  -9.5577  -9.5311  -9.4477  -9.4103
    -6.0073  -5.3314  -4.7354  -4.6860  -1.6714  -0.8671  -0.8602  -0.7219
    -0.2002  -0.1697  -0.0975  -0.0434   0.0591   0.0696   0.4344   0.4717

          k = 0.2498 0.0000 0.3616 ( 25285 PWs)   bands (ev):

   -24.2838 -24.2802  -9.7057  -9.6889  -9.6396  -9.5849  -9.5270  -9.4963
    -5.5905  -5.0578  -4.8772  -4.8668  -1.4623  -1.2371  -1.0774  -0.6050
    -0.5779  -0.3306  -0.1109   0.0206   0.1428   0.2741   0.4500   0.4760

          k = 0.2498 0.0000-0.7233 ( 25298 PWs)   bands (ev):

   -24.2765 -24.2765  -9.8822  -9.8821  -9.5419  -9.5419  -9.5137  -9.5136
    -5.1234  -5.1230  -4.8973  -4.8969  -1.6975  -1.6971  -0.8391  -0.8388
    -0.2645  -0.2642   0.0328   0.0342   0.1584   0.1585   0.3893   0.3897

          k = 0.2498 0.2436 0.0000 ( 25291 PWs)   bands (ev):

   -24.2892 -24.2856  -9.7498  -9.6494  -9.5996  -9.4949  -9.4420  -9.4155
    -5.8735  -5.2938  -4.9459  -4.7272  -1.4058  -1.0963  -0.8773  -0.4375
    -0.3591  -0.3180  -0.0446   0.1033   0.1130   0.1926   0.2559   0.3960

          k = 0.2498 0.2436 0.3616 ( 25310 PWs)   bands (ev):

   -24.2832 -24.2807  -9.7070  -9.6737  -9.6702  -9.5700  -9.5339  -9.4914
    -5.5063  -5.0832  -4.9696  -4.8627  -1.4263  -1.1872  -1.1199  -0.5964
    -0.4315  -0.2688  -0.1709   0.0366   0.1274   0.2368   0.3764   0.4564

          k = 0.2498 0.2436-0.7233 ( 25316 PWs)   bands (ev):

   -24.2765 -24.2765  -9.8884  -9.8683  -9.5587  -9.5267  -9.5195  -9.5144
    -5.3142  -5.1603  -4.8545  -4.6969  -1.6741  -1.6029  -0.9012  -0.8175
    -0.3059  -0.3049   0.0104   0.0569   0.1823   0.2131   0.3418   0.3713

          k = 0.2498-0.4872 0.0000 ( 25280 PWs)   bands (ev):

   -24.2874 -24.2874  -9.7273  -9.7273  -9.5237  -9.5237  -9.4285  -9.4285
    -5.5333  -5.5333  -4.9239  -4.9239  -1.1508  -1.1508  -0.6355  -0.6355
    -0.4215  -0.4215   0.0207   0.0207   0.2444   0.2444   0.2611   0.2611

          k = 0.2498-0.4872 0.3616 ( 25282 PWs)   bands (ev):

   -24.2820 -24.2820  -9.7029  -9.7029  -9.6194  -9.6194  -9.5028  -9.5028
    -5.2954  -5.2954  -4.9299  -4.9299  -1.3372  -1.3372  -0.8131  -0.8131
    -0.2941  -0.2941   0.0075   0.0075   0.1358   0.1358   0.3519   0.3519

          k = 0.2498-0.4872-0.7233 ( 25316 PWs)   bands (ev):

   -24.2765 -24.2765  -9.8754  -9.8754  -9.5442  -9.5442  -9.5188  -9.5188
    -5.3284  -5.3284  -4.6770  -4.6770  -1.5704  -1.5704  -0.9256  -0.9256
    -0.2007  -0.2007  -0.0747  -0.0747   0.1952   0.1952   0.3633   0.3633

          k =-0.4995 0.0000 0.0000 ( 25216 PWs)   bands (ev):

   -24.2874 -24.2874  -9.6482  -9.6482  -9.6083  -9.6083  -9.4288  -9.4288
    -5.6134  -5.6134  -4.7821  -4.7821  -1.2714  -1.2714  -0.5201  -0.5201
    -0.1624  -0.1624  -0.1608  -0.1608  -0.0554  -0.0554   0.3325   0.3325

          k =-0.4995 0.0000 0.3616 ( 25318 PWs)   bands (ev):

   -24.2820 -24.2820  -9.7147  -9.7147  -9.5885  -9.5885  -9.5249  -9.5249
    -5.2683  -5.2683  -4.9289  -4.9289  -1.3840  -1.3840  -0.8648  -0.8648
    -0.3025  -0.3025  -0.1197  -0.1197   0.2399   0.2399   0.4363   0.4363

          k =-0.4995 0.0000-0.7233 ( 25328 PWs)   bands (ev):

   -24.2765 -24.2765  -9.8966  -9.8966  -9.5335  -9.5335  -9.5090  -9.5090
    -5.1549  -5.1549  -4.8376  -4.8376  -1.8980  -1.8980  -0.5771  -0.5771
    -0.2747  -0.2747  -0.1032  -0.1032   0.3339   0.3339   0.3555   0.3555

          k =-0.4995 0.2436 0.0000 ( 25336 PWs)   bands (ev):

   -24.2874 -24.2874  -9.7260  -9.7260  -9.5283  -9.5283  -9.4285  -9.4285
    -5.5741  -5.5741  -4.8487  -4.8487  -1.1752  -1.1752  -0.5268  -0.5268
    -0.3569  -0.3569  -0.1918  -0.1918   0.1589   0.1589   0.3122   0.3122

          k =-0.4995 0.2436 0.3616 ( 25278 PWs)   bands (ev):

   -24.2820 -24.2820  -9.7044  -9.7044  -9.6234  -9.6234  -9.5017  -9.5017
    -5.2252  -5.2252  -4.9780  -4.9780  -1.3891  -1.3891  -0.8446  -0.8446
    -0.2668  -0.2668  -0.0715  -0.0715   0.2305   0.2305   0.3737   0.3737

          k =-0.4995 0.2436-0.7233 ( 25324 PWs)   bands (ev):

   -24.2765 -24.2765  -9.8794  -9.8794  -9.5464  -9.5464  -9.5181  -9.5181
    -5.1819  -5.1819  -4.8046  -4.8046  -1.8048  -1.8048  -0.7725  -0.7725
    -0.2286  -0.2286  -0.0410  -0.0410   0.2810   0.2810   0.4098   0.4098

          k =-0.4995-0.4872 0.0000 ( 25320 PWs)   bands (ev):

   -24.2874 -24.2874  -9.7644  -9.7644  -9.4877  -9.4877  -9.4283  -9.4283
    -5.5273  -5.5273  -4.9218  -4.9218  -1.0365  -1.0365  -0.6695  -0.6695
    -0.4508  -0.4508  -0.0039  -0.0039   0.1621   0.1621   0.2729   0.2729

          k =-0.4995-0.4872 0.3616 ( 25300 PWs)   bands (ev):

   -24.2819 -24.2819  -9.6847  -9.6847  -9.6588  -9.6588  -9.4874  -9.4874
    -5.1504  -5.1504  -5.0587  -5.0587  -1.3752  -1.3752  -0.8904  -0.8904
    -0.1178  -0.1178   0.0090   0.0090   0.1508   0.1508   0.2819   0.2819

          k =-0.4995-0.4872-0.7233 ( 25296 PWs)   bands (ev):

   -24.2765 -24.2765  -9.8601  -9.8601  -9.5651  -9.5651  -9.5236  -9.5236
    -5.2052  -5.2052  -4.7750  -4.7750  -1.6590  -1.6590  -1.0463  -1.0463
    -0.0200  -0.0200   0.0214   0.0214   0.1682   0.1682   0.3824   0.3824

     highest occupied level (ev):     0.5245

!    total energy              =    -156.47191658 Ry
     estimated scf accuracy    <          9.7E-11 Ry

     The total energy is the sum of the following terms:
     one-electron contribution =     -25.12926119 Ry
     hartree contribution      =      26.39289477 Ry
     xc contribution           =     -49.02355633 Ry
     ewald contribution        =    -108.71199383 Ry

     convergence has been achieved in   8 iterations

     Forces acting on atoms (cartesian axes, Ry/au):

     atom    1 type  2   force =     0.00000000    0.00000000    0.00000528
     atom    2 type  2   force =     0.00000000    0.00000000   -0.00000528
     atom    3 type  1   force =     0.00039656    0.00103914   -0.00000860
     atom    4 type  1   force =    -0.00039656   -0.00103914   -0.00000860
     atom    5 type  1   force =     0.00039656   -0.00103914    0.00000860
     atom    6 type  1   force =    -0.00039656    0.00103914    0.00000860
     atom    7 type  3   force =     0.00120053    0.00020586   -0.00001479
     atom    8 type  3   force =    -0.00120053   -0.00020586   -0.00001479
     atom    9 type  3   force =     0.00120053   -0.00020586    0.00001479
     atom   10 type  3   force =    -0.00120053    0.00020586    0.00001479
     atom   11 type  3   force =    -0.00058240    0.00028026    0.00000222
     atom   12 type  3   force =     0.00058240   -0.00028026    0.00000222
     atom   13 type  3   force =    -0.00058240   -0.00028026   -0.00000222
     atom   14 type  3   force =     0.00058240    0.00028026   -0.00000222
     atom   15 type  3   force =     0.00037422    0.00084073    0.00046700
     atom   16 type  3   force =    -0.00037422   -0.00084073    0.00046700
     atom   17 type  3   force =     0.00037422   -0.00084073   -0.00046700
     atom   18 type  3   force =    -0.00037422    0.00084073   -0.00046700
     atom   19 type  3   force =    -0.00033951   -0.00085145   -0.00047507
     atom   20 type  3   force =     0.00033951    0.00085145   -0.00047507
     atom   21 type  3   force =    -0.00033951    0.00085145    0.00047507
     atom   22 type  3   force =     0.00033951   -0.00085145    0.00047507

     Total force =     0.004591     Total SCF correction =     0.000005


     Computing stress (Cartesian axis) and pressure

          total   stress  (Ry/bohr**3)                   (kbar)     P=      -12.61
  -0.00007955   0.00000000   0.00000000          -11.70        0.00        0.00
   0.00000000  -0.00008013   0.00000000            0.00      -11.79        0.00
   0.00000000   0.00000000  -0.00009742            0.00        0.00      -14.33

     Volume is kept fixed: isostatic pressure set to zero
     Energy error            =      1.6E-03 Ry
     Gradient error          =      1.2E-03 Ry/Bohr
     Cell gradient error     =      1.7E+00 kbar

     number of scf cycles    =   3
     number of bfgs steps    =   2

     enthalpy           old  =    -156.4703630284 Ry
     enthalpy           new  =    -156.4719165813 Ry

     CASE: enthalpy          _new < enthalpy          _old

     new trust radius        =       0.0031200708 bohr
ibrav =      8
 celldm(1) =     12.84050094
 celldm(2) =      1.02533055
 celldm(3) =      0.69023095
Input lattice vectors:
     1.00112181     0.00000000     0.00000000
     0.00000000     1.02648077     0.00000000
     0.00000000     0.00000000     0.69100526
New lattice vectors in INITIAL alat:
     1.00112181     0.00000000     0.00000000
     0.00000000     1.02648077     0.00000000
     0.00000000     0.00000000     0.69100526
New lattice vectors in NEW alat (for information only):
     1.00000000     0.00000000     0.00000000
     0.00000000     1.02533055     0.00000000
     0.00000000     0.00000000     0.69023095
Discrepancy in bohr =     0.000000    0.000000    0.000000
     new conv_thr            =            1.0E-10 Ry

     new unit-cell volume =   1498.31880 a.u.^3 (   222.02794 Ang^3 )
     density =      2.49816 g/cm^3

CELL_PARAMETERS (alat= 12.82611250)
   1.001121808   0.000000000   0.000000000
   0.000000000   1.026480774   0.000000000
   0.000000000   0.000000000   0.691005261

ATOMIC_POSITIONS (crystal)
Ba               0.5000000000        0.5000000000        0.5001035321
Ba               0.0000000000        0.0000000000        0.9998964679
B                0.6103902894        0.2397097581        0.0000598408
B                0.3896097106        0.7602902419        0.0000598408
B                0.1103902894        0.2602902419        0.4999401592
B                0.8896097106        0.7397097581        0.4999401592
H                0.4368345536        0.2915577049        0.0002216299
H                0.5631654464        0.7084422951        0.0002216299
H                0.9368345536        0.2084422951        0.4997783701
H                0.0631654464        0.7915577049        0.4997783701
H                0.7202678797        0.3815974158       -0.0000056221
H                0.2797321203        0.6184025842       -0.0000056221
H                0.2202678797        0.1184025842        0.5000056221
H                0.7797321203        0.8815974158        0.5000056221
H                0.6390027498        0.1436677184        0.7838591606
H                0.3609972502        0.8563322816        0.7838591606
H                0.1390027498        0.3563322816        0.7161408394
H                0.8609972502        0.6436677184        0.7161408394
H                0.3607970615        0.8563767755        0.2161600011
H                0.6392029385        0.1436232245        0.2161600011
H                0.8607970615        0.6436232245        0.2838399989
H                0.1392029385        0.3563767755        0.2838399989



     Writing config-only to output data dir ./pwscf.save/ :
     XML data file
     NEW-OLD atomic charge density approx. for the potential

     total cpu time spent up to now is      485.6 secs

     Self-consistent Calculation

     iteration #  1     ecut=   100.00 Ry     beta= 0.70
     Davidson diagonalization with overlap
     ethr =  1.00E-06,  avg # of iterations =  2.0

     Threshold (ethr) on eigenvalues was too large:
     Diagonalizing with lowered threshold

     Davidson diagonalization with overlap
     ethr =  3.40E-08,  avg # of iterations =  2.0

     total cpu time spent up to now is      511.4 secs

     total energy              =    -156.47194551 Ry
     estimated scf accuracy    <       0.00002208 Ry

     iteration #  2     ecut=   100.00 Ry     beta= 0.70
     Davidson diagonalization with overlap
     ethr =  4.60E-08,  avg # of iterations =  2.0

     total cpu time spent up to now is      524.6 secs

     total energy              =    -156.47195173 Ry
     estimated scf accuracy    <       0.00000433 Ry

     iteration #  3     ecut=   100.00 Ry     beta= 0.70
     Davidson diagonalization with overlap
     ethr =  9.02E-09,  avg # of iterations =  2.0

     total cpu time spent up to now is      537.9 secs

     total energy              =    -156.47195231 Ry
     estimated scf accuracy    <       0.00000007 Ry

     iteration #  4     ecut=   100.00 Ry     beta= 0.70
     Davidson diagonalization with overlap
     ethr =  1.43E-10,  avg # of iterations =  3.0

     total cpu time spent up to now is      554.0 secs

     total energy              =    -156.47195234 Ry
     estimated scf accuracy    <       0.00000003 Ry

     iteration #  5     ecut=   100.00 Ry     beta= 0.70
     Davidson diagonalization with overlap
     ethr =  6.97E-11,  avg # of iterations =  2.0

     total cpu time spent up to now is      567.2 secs

     total energy              =    -156.47195235 Ry
     estimated scf accuracy    <          3.2E-10 Ry

     iteration #  6     ecut=   100.00 Ry     beta= 0.70
     Davidson diagonalization with overlap
     ethr =  6.63E-13,  avg # of iterations =  7.3

     total cpu time spent up to now is      593.9 secs

     total energy              =    -156.47195235 Ry
     estimated scf accuracy    <          3.0E-10 Ry

     iteration #  7     ecut=   100.00 Ry     beta= 0.70
     Davidson diagonalization with overlap
     ethr =  6.29E-13,  avg # of iterations =  2.0

     total cpu time spent up to now is      607.1 secs

     End of self-consistent calculation

          k = 0.0000 0.0000 0.0000 ( 25305 PWs)   bands (ev):

   -24.2924 -24.2853  -9.7625  -9.6878  -9.5233  -9.4907  -9.4569  -9.4041
    -6.1842  -5.2975  -4.7111  -4.5555  -1.8538  -0.9906  -0.9604  -0.6125
    -0.2360  -0.2190  -0.1903  -0.0586   0.1010   0.4609   0.4831   0.5169

          k = 0.0000 0.0000 0.3618 ( 25282 PWs)   bands (ev):

   -24.2859 -24.2809  -9.6796  -9.6768  -9.6544  -9.6298  -9.5080  -9.4903
    -5.7315  -5.0690  -4.8585  -4.7564  -1.4959  -1.2572  -0.7993  -0.7697
    -0.6333  -0.5267  -0.1866   0.0796   0.2803   0.2981   0.3764   0.5126

          k = 0.0000 0.0000-0.7236 ( 25268 PWs)   bands (ev):

   -24.2779 -24.2779  -9.8695  -9.8694  -9.5541  -9.5541  -9.5182  -9.5181
    -5.0744  -5.0739  -4.9849  -4.9845  -1.2569  -1.2564  -1.2420  -1.2405
    -0.2548  -0.2544  -0.2152  -0.2132   0.3307   0.3307   0.3481   0.3485

          k = 0.0000 0.2436 0.0000 ( 25264 PWs)   bands (ev):

   -24.2914 -24.2864  -9.7368  -9.6625  -9.5662  -9.5201  -9.4490  -9.4117
    -6.0034  -5.2184  -4.9645  -4.6717  -1.5238  -1.1328  -1.0653  -0.3254
    -0.3195  -0.3153  -0.0214   0.0930   0.1578   0.1821   0.3794   0.4562

          k = 0.0000 0.2436 0.3618 ( 25300 PWs)   bands (ev):

   -24.2852 -24.2816  -9.7160  -9.6808  -9.6168  -9.6069  -9.5150  -9.5082
    -5.6316  -5.1341  -4.9002  -4.7956  -1.3159  -1.2801  -1.0753  -0.5471
    -0.5119  -0.3350  -0.3126   0.1276   0.2108   0.2416   0.3523   0.4043

          k = 0.0000 0.2436-0.7236 ( 25314 PWs)   bands (ev):

   -24.2779 -24.2779  -9.8812  -9.8811  -9.5389  -9.5389  -9.5175  -9.5175
    -5.3149  -5.3148  -4.7358  -4.7358  -1.3648  -1.3642  -1.0842  -1.0834
    -0.1919  -0.1919  -0.1710  -0.1693   0.1781   0.1781   0.3404   0.3406

          k = 0.0000-0.4871 0.0000 ( 25262 PWs)   bands (ev):

   -24.2889 -24.2889  -9.6666  -9.6666  -9.5866  -9.5866  -9.4302  -9.4302
    -5.5462  -5.5462  -4.9305  -4.9305  -1.2458  -1.2458  -0.6287  -0.6287
    -0.3897  -0.3897   0.0690   0.0690   0.2118   0.2118   0.3247   0.3247

          k = 0.0000-0.4871 0.3618 ( 25314 PWs)   bands (ev):

   -24.2834 -24.2834  -9.7142  -9.7142  -9.5728  -9.5728  -9.5373  -9.5373
    -5.3817  -5.3817  -4.8712  -4.8712  -1.2601  -1.2601  -0.8643  -0.8643
    -0.2919  -0.2919  -0.0163  -0.0163   0.1211   0.1211   0.3304   0.3304

          k = 0.0000-0.4871-0.7236 ( 25392 PWs)   bands (ev):

   -24.2779 -24.2779  -9.8919  -9.8919  -9.5269  -9.5269  -9.5146  -9.5146
    -5.4290  -5.4290  -4.6134  -4.6134  -1.4487  -1.4487  -0.8629  -0.8629
    -0.2595  -0.2595  -0.0899  -0.0899  -0.0068  -0.0068   0.3754   0.3754

          k = 0.2497 0.0000 0.0000 ( 25305 PWs)   bands (ev):

   -24.2914 -24.2864  -9.7293  -9.6710  -9.5594  -9.5326  -9.4490  -9.4117
    -6.0121  -5.3381  -4.7421  -4.6929  -1.6735  -0.8693  -0.8642  -0.7259
    -0.2001  -0.1710  -0.0984  -0.0491   0.0582   0.0652   0.4284   0.4641

          k = 0.2497 0.0000 0.3618 ( 25285 PWs)   bands (ev):

   -24.2852 -24.2816  -9.7076  -9.6908  -9.6415  -9.5866  -9.5284  -9.4978
    -5.5949  -5.0638  -4.8844  -4.8742  -1.4622  -1.2389  -1.0779  -0.6077
    -0.5814  -0.3329  -0.1151   0.0159   0.1394   0.2696   0.4433   0.4710

          k = 0.2497 0.0000-0.7236 ( 25298 PWs)   bands (ev):

   -24.2779 -24.2779  -9.8850  -9.8849  -9.5432  -9.5431  -9.5151  -9.5151
    -5.1302  -5.1298  -4.9030  -4.9027  -1.6970  -1.6966  -0.8400  -0.8397
    -0.2686  -0.2683   0.0287   0.0301   0.1532   0.1532   0.3839   0.3842

          k = 0.2497 0.2436 0.0000 ( 25291 PWs)   bands (ev):

   -24.2906 -24.2871  -9.7516  -9.6513  -9.6010  -9.4965  -9.4433  -9.4169
    -5.8787  -5.3008  -4.9518  -4.7338  -1.4087  -1.0990  -0.8806  -0.4418
    -0.3594  -0.3184  -0.0501   0.1020   0.1069   0.1914   0.2502   0.3898

          k = 0.2497 0.2436 0.3618 ( 25310 PWs)   bands (ev):

   -24.2846 -24.2821  -9.7090  -9.6759  -9.6717  -9.5718  -9.5353  -9.4929
    -5.5110  -5.0895  -4.9761  -4.8699  -1.4264  -1.1879  -1.1221  -0.5991
    -0.4350  -0.2714  -0.1747   0.0329   0.1220   0.2319   0.3715   0.4510

          k = 0.2497 0.2436-0.7236 ( 25316 PWs)   bands (ev):

   -24.2779 -24.2779  -9.8912  -9.8711  -9.5599  -9.5281  -9.5209  -9.5159
    -5.3208  -5.1668  -4.8606  -4.7027  -1.6739  -1.6025  -0.9023  -0.8181
    -0.3104  -0.3091   0.0071   0.0531   0.1757   0.2082   0.3378   0.3644

          k = 0.2497-0.4871 0.0000 ( 25280 PWs)   bands (ev):

   -24.2889 -24.2889  -9.7290  -9.7290  -9.5253  -9.5253  -9.4299  -9.4299
    -5.5393  -5.5393  -4.9300  -4.9300  -1.1538  -1.1538  -0.6399  -0.6399
    -0.4217  -0.4217   0.0152   0.0152   0.2429   0.2429   0.2554   0.2554

          k = 0.2497-0.4871 0.3618 ( 25282 PWs)   bands (ev):

   -24.2834 -24.2834  -9.7048  -9.7048  -9.6212  -9.6212  -9.5043  -9.5043
    -5.3009  -5.3009  -4.9365  -4.9365  -1.3377  -1.3377  -0.8159  -0.8159
    -0.2969  -0.2969   0.0037   0.0037   0.1302   0.1302   0.3473   0.3473

          k = 0.2497-0.4871-0.7236 ( 25316 PWs)   bands (ev):

   -24.2779 -24.2779  -9.8782  -9.8782  -9.5454  -9.5454  -9.5203  -9.5203
    -5.3348  -5.3348  -4.6830  -4.6830  -1.5703  -1.5703  -0.9264  -0.9264
    -0.2053  -0.2053  -0.0785  -0.0785   0.1900   0.1900   0.3578   0.3578

          k =-0.4994 0.0000 0.0000 ( 25216 PWs)   bands (ev):

   -24.2889 -24.2889  -9.6502  -9.6502  -9.6097  -9.6097  -9.4302  -9.4302
    -5.6192  -5.6192  -4.7889  -4.7889  -1.2741  -1.2741  -0.5230  -0.5230
    -0.1662  -0.1662  -0.1621  -0.1621  -0.0571  -0.0571   0.3253   0.3253

          k =-0.4994 0.0000 0.3618 ( 25318 PWs)   bands (ev):

   -24.2834 -24.2834  -9.7166  -9.7166  -9.5902  -9.5902  -9.5265  -9.5265
    -5.2736  -5.2736  -4.9360  -4.9360  -1.3838  -1.3838  -0.8676  -0.8676
    -0.3060  -0.3060  -0.1238  -0.1238   0.2364   0.2364   0.4302   0.4302

          k =-0.4994 0.0000-0.7236 ( 25328 PWs)   bands (ev):

   -24.2779 -24.2779  -9.8993  -9.8993  -9.5348  -9.5348  -9.5105  -9.5105
    -5.1625  -5.1625  -4.8427  -4.8427  -1.8971  -1.8971  -0.5783  -0.5783
    -0.2789  -0.2789  -0.1077  -0.1077   0.3298   0.3298   0.3491   0.3491

          k =-0.4994 0.2436 0.0000 ( 25336 PWs)   bands (ev):

   -24.2888 -24.2888  -9.7277  -9.7277  -9.5299  -9.5299  -9.4299  -9.4299
    -5.5802  -5.5802  -4.8549  -4.8549  -1.1784  -1.1784  -0.5304  -0.5304
    -0.3570  -0.3570  -0.1965  -0.1965   0.1575   0.1575   0.3054   0.3054

          k =-0.4994 0.2436 0.3618 ( 25278 PWs)   bands (ev):

   -24.2834 -24.2834  -9.7063  -9.7063  -9.6252  -9.6252  -9.5032  -9.5032
    -5.2308  -5.2308  -4.9848  -4.9848  -1.3891  -1.3891  -0.8473  -0.8473
    -0.2706  -0.2706  -0.0753  -0.0753   0.2266   0.2266   0.3682   0.3682

          k =-0.4994 0.2436-0.7236 ( 25324 PWs)   bands (ev):

   -24.2779 -24.2779  -9.8822  -9.8822  -9.5477  -9.5477  -9.5196  -9.5196
    -5.1891  -5.1891  -4.8101  -4.8101  -1.8040  -1.8040  -0.7737  -0.7737
    -0.2332  -0.2332  -0.0452  -0.0452   0.2753   0.2753   0.4049   0.4049

          k =-0.4994-0.4871 0.0000 ( 25320 PWs)   bands (ev):

   -24.2888 -24.2888  -9.7661  -9.7661  -9.4893  -9.4893  -9.4296  -9.4296
    -5.5339  -5.5339  -4.9273  -4.9273  -1.0408  -1.0408  -0.6726  -0.6726
    -0.4509  -0.4509  -0.0097  -0.0097   0.1569   0.1569   0.2713   0.2713

          k =-0.4994-0.4871 0.3618 ( 25300 PWs)   bands (ev):

   -24.2834 -24.2834  -9.6862  -9.6862  -9.6610  -9.6610  -9.4889  -9.4889
    -5.1564  -5.1564  -5.0649  -5.0649  -1.3755  -1.3755  -0.8930  -0.8930
    -0.1214  -0.1214   0.0040   0.0040   0.1457   0.1457   0.2784   0.2784

          k =-0.4994-0.4871-0.7236 ( 25296 PWs)   bands (ev):

   -24.2779 -24.2779  -9.8630  -9.8630  -9.5663  -9.5663  -9.5251  -9.5251
    -5.2121  -5.2121  -4.7807  -4.7807  -1.6584  -1.6584  -1.0471  -1.0471
    -0.0238  -0.0238   0.0158   0.0158   0.1623   0.1623   0.3783   0.3783

     highest occupied level (ev):     0.5169

!    total energy              =    -156.47195235 Ry
     estimated scf accuracy    <          1.6E-11 Ry

     The total energy is the sum of the following terms:
     one-electron contribution =     -25.21563143 Ry
     hartree contribution      =      26.43605966 Ry
     xc contribution           =     -49.03249246 Ry
     ewald contribution        =    -108.65988813 Ry

     convergence has been achieved in   7 iterations

     Forces acting on atoms (cartesian axes, Ry/au):

     atom    1 type  2   force =     0.00000000    0.00000000    0.00000390
     atom    2 type  2   force =     0.00000000    0.00000000   -0.00000390
     atom    3 type  1   force =     0.00039515    0.00081105   -0.00000792
     atom    4 type  1   force =    -0.00039515   -0.00081105   -0.00000792
     atom    5 type  1   force =     0.00039515   -0.00081105    0.00000792
     atom    6 type  1   force =    -0.00039515    0.00081105    0.00000792
     atom    7 type  3   force =     0.00039657    0.00043648   -0.00001495
     atom    8 type  3   force =    -0.00039657   -0.00043648   -0.00001495
     atom    9 type  3   force =     0.00039657   -0.00043648    0.00001495
     atom   10 type  3   force =    -0.00039657    0.00043648    0.00001495
     atom   11 type  3   force =     0.00000003    0.00103034    0.00000161
     atom   12 type  3   force =    -0.00000003   -0.00103034    0.00000161
     atom   13 type  3   force =     0.00000003   -0.00103034   -0.00000161
     atom   14 type  3   force =    -0.00000003    0.00103034   -0.00000161
     atom   15 type  3   force =     0.00049946    0.00045031   -0.00031781
     atom   16 type  3   force =    -0.00049946   -0.00045031   -0.00031781
     atom   17 type  3   force =     0.00049946   -0.00045031    0.00031781
     atom   18 type  3   force =    -0.00049946    0.00045031    0.00031781
     atom   19 type  3   force =    -0.00046756   -0.00045910    0.00031067
     atom   20 type  3   force =     0.00046756    0.00045910    0.00031067
     atom   21 type  3   force =    -0.00046756    0.00045910   -0.00031067
     atom   22 type  3   force =     0.00046756   -0.00045910   -0.00031067

     Total force =     0.003635     Total SCF correction =     0.000002


     Computing stress (Cartesian axis) and pressure

          total   stress  (Ry/bohr**3)                   (kbar)     P=      -11.53
  -0.00007294   0.00000000   0.00000000          -10.73        0.00        0.00
   0.00000000  -0.00007374   0.00000000            0.00      -10.85        0.00
   0.00000000   0.00000000  -0.00008844            0.00        0.00      -13.01

     Volume is kept fixed: isostatic pressure set to zero
     Energy error            =      3.6E-05 Ry
     Gradient error          =      1.0E-03 Ry/Bohr
     Cell gradient error     =      1.5E+00 kbar

     number of scf cycles    =   4
     number of bfgs steps    =   3

     enthalpy           old  =    -156.4719165813 Ry
     enthalpy           new  =    -156.4719523512 Ry

     CASE: enthalpy          _new < enthalpy          _old

     new trust radius        =       0.0047759547 bohr
ibrav =      8
 celldm(1) =     12.84475131
 celldm(2) =      1.02528399
 celldm(3) =      0.68957730
Input lattice vectors:
     1.00145319     0.00000000     0.00000000
     0.00000000     1.02677392     0.00000000
     0.00000000     0.00000000     0.69057938
New lattice vectors in INITIAL alat:
     1.00145319     0.00000000     0.00000000
     0.00000000     1.02677392     0.00000000
     0.00000000     0.00000000     0.69057938
New lattice vectors in NEW alat (for information only):
     1.00000000     0.00000000     0.00000000
     0.00000000     1.02528399     0.00000000
     0.00000000     0.00000000     0.68957730
Discrepancy in bohr =     0.000000    0.000000    0.000000
     new conv_thr            =            3.6E-12 Ry

     new unit-cell volume =   1498.31880 a.u.^3 (   222.02794 Ang^3 )
     density =      2.49816 g/cm^3

CELL_PARAMETERS (alat= 12.82611250)
   1.001453193   0.000000000   0.000000000
   0.000000000   1.026773923   0.000000000
   0.000000000   0.000000000   0.690579385

ATOMIC_POSITIONS (crystal)
Ba               0.5000000000        0.5000000000        0.5001046777
Ba               0.0000000000        0.0000000000        0.9998953223
B                0.6104598076        0.2398658378        0.0000577438
B                0.3895401924        0.7601341622        0.0000577438
B                0.1104598076        0.2601341622        0.4999422562
B                0.8895401924        0.7398658378        0.4999422562
H                0.4370128297        0.2916016323        0.0002178057
H                0.5629871703        0.7083983677        0.0002178057
H                0.9370128297        0.2083983677        0.4997821943
H                0.0629871703        0.7916016323        0.4997821943
H                0.7201916113        0.3816767094       -0.0000051198
H                0.2798083887        0.6183232906       -0.0000051198
H                0.2201916113        0.1183232906        0.5000051198
H                0.7798083887        0.8816767094        0.5000051198
H                0.6390732480        0.1438014120        0.7839273885
H                0.3609267520        0.8561985880        0.7839273885
H                0.1390732480        0.3561985880        0.7160726115
H                0.8609267520        0.6438014120        0.7160726115
H                0.3607324661        0.8562414101        0.2160898857
H                0.6392675339        0.1437585899        0.2160898857
H                0.8607324661        0.6437585899        0.2839101143
H                0.1392675339        0.3562414101        0.2839101143



     Writing config-only to output data dir ./pwscf.save/ :
     XML data file
     NEW-OLD atomic charge density approx. for the potential

     total cpu time spent up to now is      620.2 secs

     Self-consistent Calculation

     iteration #  1     ecut=   100.00 Ry     beta= 0.70
     Davidson diagonalization with overlap
     ethr =  1.00E-06,  avg # of iterations =  2.0

     Threshold (ethr) on eigenvalues was too large:
     Diagonalizing with lowered threshold

     Davidson diagonalization with overlap
     ethr =  1.52E-08,  avg # of iterations =  3.0

     total cpu time spent up to now is      647.6 secs

     total energy              =    -156.47198316 Ry
     estimated scf accuracy    <       0.00000995 Ry

     iteration #  2     ecut=   100.00 Ry     beta= 0.70
     Davidson diagonalization with overlap
     ethr =  2.07E-08,  avg # of iterations =  2.0

     total cpu time spent up to now is      660.9 secs

     total energy              =    -156.47198546 Ry
     estimated scf accuracy    <       0.00000112 Ry

     iteration #  3     ecut=   100.00 Ry     beta= 0.70
     Davidson diagonalization with overlap
     ethr =  2.34E-09,  avg # of iterations =  2.0

     total cpu time spent up to now is      674.1 secs

     total energy              =    -156.47198563 Ry
     estimated scf accuracy    <       0.00000003 Ry

     iteration #  4     ecut=   100.00 Ry     beta= 0.70
     Davidson diagonalization with overlap
     ethr =  5.69E-11,  avg # of iterations =  4.8

     total cpu time spent up to now is      690.5 secs

     total energy              =    -156.47198564 Ry
     estimated scf accuracy    <          5.7E-09 Ry

     iteration #  5     ecut=   100.00 Ry     beta= 0.70
     Davidson diagonalization with overlap
     ethr =  1.20E-11,  avg # of iterations =  4.1

     total cpu time spent up to now is      706.2 secs

     total energy              =    -156.47198564 Ry
     estimated scf accuracy    <          1.2E-10 Ry

     iteration #  6     ecut=   100.00 Ry     beta= 0.70
     Davidson diagonalization with overlap
     ethr =  2.45E-13,  avg # of iterations =  6.5

     total cpu time spent up to now is      730.3 secs

     End of self-consistent calculation

          k = 0.0000 0.0000 0.0000 ( 25305 PWs)   bands (ev):

   -24.2923 -24.2852  -9.7631  -9.6882  -9.5237  -9.4908  -9.4567  -9.4040
    -6.1869  -5.3014  -4.7149  -4.5599  -1.8569  -0.9930  -0.9622  -0.6177
    -0.2355  -0.2239  -0.1873  -0.0585   0.1034   0.4568   0.4794   0.5099

          k = 0.0000 0.0000 0.3620 ( 25282 PWs)   bands (ev):

   -24.2857 -24.2807  -9.6799  -9.6780  -9.6557  -9.6299  -9.5082  -9.4903
    -5.7330  -5.0715  -4.8630  -4.7614  -1.4971  -1.2588  -0.8015  -0.7720
    -0.6337  -0.5261  -0.1886   0.0776   0.2772   0.2927   0.3740   0.5069

          k = 0.0000 0.0000-0.7240 ( 25268 PWs)   bands (ev):

   -24.2777 -24.2777  -9.8717  -9.8716  -9.5538  -9.5537  -9.5182  -9.5182
    -5.0752  -5.0748  -4.9905  -4.9900  -1.2562  -1.2557  -1.2437  -1.2423
    -0.2573  -0.2569  -0.2172  -0.2153   0.3247   0.3247   0.3450   0.3452

          k = 0.0000 0.2435 0.0000 ( 25264 PWs)   bands (ev):

   -24.2912 -24.2862  -9.7374  -9.6630  -9.5665  -9.5202  -9.4488  -9.4116
    -6.0063  -5.2231  -4.9673  -4.6758  -1.5276  -1.1351  -1.0674  -0.3240
    -0.3205  -0.3171  -0.0267   0.0938   0.1516   0.1836   0.3753   0.4523

          k = 0.0000 0.2435 0.3620 ( 25300 PWs)   bands (ev):

   -24.2850 -24.2814  -9.7168  -9.6818  -9.6175  -9.6071  -9.5152  -9.5082
    -5.6334  -5.1369  -4.9042  -4.8002  -1.3174  -1.2816  -1.0772  -0.5470
    -0.5131  -0.3383  -0.3135   0.1251   0.2073   0.2360   0.3499   0.4001

          k = 0.0000 0.2435-0.7240 ( 25314 PWs)   bands (ev):

   -24.2777 -24.2777  -9.8833  -9.8832  -9.5386  -9.5386  -9.5176  -9.5176
    -5.3180  -5.3179  -4.7390  -4.7390  -1.3664  -1.3658  -1.0836  -1.0829
    -0.1949  -0.1949  -0.1735  -0.1718   0.1753   0.1754   0.3347   0.3349

          k = 0.0000-0.4870 0.0000 ( 25262 PWs)   bands (ev):

   -24.2887 -24.2887  -9.6673  -9.6673  -9.5866  -9.5866  -9.4300  -9.4300
    -5.5497  -5.5497  -4.9340  -4.9340  -1.2485  -1.2485  -0.6331  -0.6331
    -0.3877  -0.3877   0.0633   0.0633   0.2127   0.2127   0.3209   0.3209

          k = 0.0000-0.4870 0.3620 ( 25314 PWs)   bands (ev):

   -24.2832 -24.2832  -9.7150  -9.7150  -9.5733  -9.5733  -9.5374  -9.5374
    -5.3841  -5.3841  -4.8752  -4.8752  -1.2615  -1.2615  -0.8660  -0.8660
    -0.2936  -0.2936  -0.0173  -0.0173   0.1152   0.1152   0.3276   0.3276

          k = 0.0000-0.4870-0.7240 ( 25392 PWs)   bands (ev):

   -24.2777 -24.2777  -9.8939  -9.8939  -9.5267  -9.5267  -9.5147  -9.5147
    -5.4322  -5.4322  -4.6162  -4.6162  -1.4503  -1.4503  -0.8623  -0.8623
    -0.2634  -0.2634  -0.0922  -0.0922  -0.0102  -0.0102   0.3705   0.3705

          k = 0.2496 0.0000 0.0000 ( 25305 PWs)   bands (ev):

   -24.2912 -24.2862  -9.7300  -9.6714  -9.5598  -9.5327  -9.4488  -9.4116
    -6.0151  -5.3423  -4.7458  -4.6968  -1.6766  -0.8709  -0.8685  -0.7289
    -0.1975  -0.1701  -0.0972  -0.0549   0.0598   0.0624   0.4239   0.4572

          k = 0.2496 0.0000 0.3620 ( 25285 PWs)   bands (ev):

[...]
        18        H      tau(  18) = (   0.8605843   0.6686828   0.4909678  )
        19        H      tau(  19) = (   0.3530513   0.8690425   0.1497856  )
        20        H      tau(  20) = (   0.6620369   0.1561091   0.1497856  )
        21        H      tau(  21) = (   0.8605954   0.6686849   0.1914051  )
        22        H      tau(  22) = (   0.1544928   0.3564667   0.1914051  )

     number of k points=    27
                       cart. coord. in units 2pi/alat
        k(    1) = (   0.0000000   0.0000000   0.0000000), wk =   0.0312500
        k(    2) = (   0.0000000   0.0000000   0.3663640), wk =   0.0625000
        k(    3) = (   0.0000000   0.0000000  -0.7327280), wk =   0.0312500
        k(    4) = (   0.0000000   0.2438664   0.0000000), wk =   0.0625000
        k(    5) = (   0.0000000   0.2438664   0.3663640), wk =   0.1250000
        k(    6) = (   0.0000000   0.2438664  -0.7327280), wk =   0.0625000
        k(    7) = (   0.0000000  -0.4877327   0.0000000), wk =   0.0312500
        k(    8) = (   0.0000000  -0.4877327   0.3663640), wk =   0.0625000
        k(    9) = (   0.0000000  -0.4877327  -0.7327280), wk =   0.0312500
        k(   10) = (   0.2462840   0.0000000   0.0000000), wk =   0.0625000
        k(   11) = (   0.2462840   0.0000000   0.3663640), wk =   0.1250000
        k(   12) = (   0.2462840   0.0000000  -0.7327280), wk =   0.0625000
        k(   13) = (   0.2462840   0.2438664   0.0000000), wk =   0.1250000
        k(   14) = (   0.2462840   0.2438664   0.3663640), wk =   0.2500000
        k(   15) = (   0.2462840   0.2438664  -0.7327280), wk =   0.1250000
        k(   16) = (   0.2462840  -0.4877327   0.0000000), wk =   0.0625000
        k(   17) = (   0.2462840  -0.4877327   0.3663640), wk =   0.1250000
        k(   18) = (   0.2462840  -0.4877327  -0.7327280), wk =   0.0625000
        k(   19) = (  -0.4925680   0.0000000   0.0000000), wk =   0.0312500
        k(   20) = (  -0.4925680   0.0000000   0.3663640), wk =   0.0625000
        k(   21) = (  -0.4925680   0.0000000  -0.7327280), wk =   0.0312500
        k(   22) = (  -0.4925680   0.2438664   0.0000000), wk =   0.0625000
        k(   23) = (  -0.4925680   0.2438664   0.3663640), wk =   0.1250000
        k(   24) = (  -0.4925680   0.2438664  -0.7327280), wk =   0.0625000
        k(   25) = (  -0.4925680  -0.4877327   0.0000000), wk =   0.0312500
        k(   26) = (  -0.4925680  -0.4877327   0.3663640), wk =   0.0625000
        k(   27) = (  -0.4925680  -0.4877327  -0.7327280), wk =   0.0312500

     Dense  grid:   572641 G-vectors     FFT dimensions: ( 120, 120,  80)

     Smooth grid:   202387 G-vectors     FFT dimensions: (  90,  90,  60)

     Estimated max dynamical RAM per process >      94.06 MB

     Estimated total dynamical RAM >       2.20 GB

     Initial potential from superposition of free atoms

     starting charge      47.9682, renormalised to      48.0000
     Starting wfcs are   42 randomized atomic wfcs

     total cpu time spent up to now is     7301.2 secs

     Self-consistent Calculation

     iteration #  1     ecut=   100.00 Ry     beta= 0.70
     Davidson diagonalization with overlap
     ethr =  1.00E-06,  avg # of iterations = 11.1

     total cpu time spent up to now is     7344.5 secs

     total energy              =    -155.83310013 Ry
     estimated scf accuracy    <       2.27018717 Ry

     iteration #  2     ecut=   100.00 Ry     beta= 0.70
     Davidson diagonalization with overlap
     ethr =  4.73E-03,  avg # of iterations =  2.0

     total cpu time spent up to now is     7357.8 secs

     total energy              =    -156.39625181 Ry
     estimated scf accuracy    <       0.47111736 Ry

     iteration #  3     ecut=   100.00 Ry     beta= 0.70
     Davidson diagonalization with overlap
     ethr =  9.81E-04,  avg # of iterations =  2.0

     total cpu time spent up to now is     7371.0 secs

     total energy              =    -156.47034893 Ry
     estimated scf accuracy    <       0.00568236 Ry

     iteration #  4     ecut=   100.00 Ry     beta= 0.70
     Davidson diagonalization with overlap
     ethr =  1.18E-05,  avg # of iterations =  3.4

     total cpu time spent up to now is     7387.8 secs

     total energy              =    -156.47245619 Ry
     estimated scf accuracy    <       0.00227417 Ry

     iteration #  5     ecut=   100.00 Ry     beta= 0.70
     Davidson diagonalization with overlap
     ethr =  4.74E-06,  avg # of iterations =  3.2

     total cpu time spent up to now is     7401.8 secs

     total energy              =    -156.47310039 Ry
     estimated scf accuracy    <       0.00005190 Ry

     iteration #  6     ecut=   100.00 Ry     beta= 0.70
     Davidson diagonalization with overlap
     ethr =  1.08E-07,  avg # of iterations =  6.1

     total cpu time spent up to now is     7424.5 secs

     total energy              =    -156.47319909 Ry
     estimated scf accuracy    <       0.00001853 Ry

     iteration #  7     ecut=   100.00 Ry     beta= 0.70
     Davidson diagonalization with overlap
     ethr =  3.86E-08,  avg # of iterations =  2.3

     total cpu time spent up to now is     7438.1 secs

     total energy              =    -156.47320290 Ry
     estimated scf accuracy    <       0.00000020 Ry

     iteration #  8     ecut=   100.00 Ry     beta= 0.70
     Davidson diagonalization with overlap
     ethr =  4.13E-10,  avg # of iterations =  6.6

     total cpu time spent up to now is     7462.7 secs

     total energy              =    -156.47320339 Ry
     estimated scf accuracy    <       0.00000008 Ry

     iteration #  9     ecut=   100.00 Ry     beta= 0.70
     Davidson diagonalization with overlap
     ethr =  1.71E-10,  avg # of iterations =  2.0

     total cpu time spent up to now is     7475.8 secs

     total energy              =    -156.47320339 Ry
     estimated scf accuracy    <          7.8E-09 Ry

     iteration # 10     ecut=   100.00 Ry     beta= 0.70
     Davidson diagonalization with overlap
     ethr =  1.62E-11,  avg # of iterations =  4.6

     total cpu time spent up to now is     7492.1 secs

     total energy              =    -156.47320340 Ry
     estimated scf accuracy    <          9.8E-11 Ry

     iteration # 11     ecut=   100.00 Ry     beta= 0.70
     Davidson diagonalization with overlap
     ethr =  2.05E-13,  avg # of iterations =  8.5

     total cpu time spent up to now is     7524.7 secs

     total energy              =    -156.47320340 Ry
     estimated scf accuracy    <          6.3E-11 Ry

     iteration # 12     ecut=   100.00 Ry     beta= 0.70
     Davidson diagonalization with overlap
     ethr =  1.32E-13,  avg # of iterations =  2.1

     total cpu time spent up to now is     7539.0 secs

     total energy              =    -156.47320340 Ry
     estimated scf accuracy    <          2.5E-12 Ry

     iteration # 13     ecut=   100.00 Ry     beta= 0.70
     Davidson diagonalization with overlap
     ethr =  1.00E-13,  avg # of iterations =  1.0

     total cpu time spent up to now is     7549.3 secs

     End of self-consistent calculation

          k = 0.0000 0.0000 0.0000 ( 25311 PWs)   bands (ev):

   -24.2287 -24.2215  -9.7400  -9.6723  -9.4859  -9.4484  -9.4058  -9.3510
    -6.2213  -5.3298  -4.7259  -4.6176  -1.9199  -0.9921  -0.9789  -0.6201
    -0.3889  -0.3158  -0.1922  -0.1647   0.1092   0.4362   0.4368   0.4772

          k = 0.0000 0.0000 0.3664 ( 25316 PWs)   bands (ev):

   -24.2210 -24.2159  -9.6603  -9.6483  -9.6391  -9.6022  -9.4673  -9.4450
    -5.7254  -5.0570  -4.8991  -4.8285  -1.5247  -1.3492  -0.9852  -0.7748
    -0.6257  -0.5416  -0.1991   0.0511   0.2363   0.2539   0.3054   0.4382

          k = 0.0000 0.0000-0.7327 ( 25348 PWs)   bands (ev):

   -24.2119 -24.2119  -9.8805  -9.8805  -9.5084  -9.5084  -9.4766  -9.4766
    -5.0613  -5.0613  -5.0263  -5.0263  -1.3887  -1.3886  -1.2871  -1.2871
    -0.2484  -0.2484  -0.2230  -0.2228   0.2353   0.2354   0.3102   0.3103

          k = 0.0000 0.2439 0.0000 ( 25294 PWs)   bands (ev):

   -24.2276 -24.2225  -9.7134  -9.6454  -9.5292  -9.4809  -9.3977  -9.3589
    -6.0420  -5.2793  -4.9542  -4.7200  -1.6142  -1.1675  -1.0632  -0.3628
    -0.3387  -0.3306  -0.1527  -0.0043   0.1214   0.1361   0.3518   0.4126

          k = 0.0000 0.2439 0.3664 ( 25323 PWs)   bands (ev):

   -24.2203 -24.2167  -9.6952  -9.6634  -9.5895  -9.5785  -9.4757  -9.4646
    -5.6266  -5.1289  -4.9371  -4.8591  -1.3699  -1.3640  -1.1726  -0.5852
    -0.5605  -0.3487  -0.3319   0.0810   0.1772   0.2040   0.2979   0.3354

          k = 0.0000 0.2439-0.7327 ( 25344 PWs)   bands (ev):

   -24.2119 -24.2119  -9.8912  -9.8911  -9.4935  -9.4935  -9.4765  -9.4765
    -5.3282  -5.3282  -4.7494  -4.7494  -1.5247  -1.5247  -1.1089  -1.1089
    -0.1888  -0.1886  -0.1762  -0.1762   0.1406   0.1407   0.2576   0.2576

          k = 0.0000-0.4877 0.0000 ( 25230 PWs)   bands (ev):

   -24.2250 -24.2250  -9.6434  -9.6434  -9.5520  -9.5520  -9.3782  -9.3782
    -5.5954  -5.5954  -4.9459  -4.9459  -1.3224  -1.3224  -0.6438  -0.6438
    -0.3969  -0.3969   0.0206   0.0206   0.1169   0.1169   0.2667   0.2667

          k = 0.0000-0.4877 0.3664 ( 25306 PWs)   bands (ev):

   -24.2185 -24.2185  -9.6952  -9.6952  -9.5442  -9.5442  -9.4965  -9.4965
    -5.3794  -5.3794  -4.9165  -4.9165  -1.3584  -1.3584  -0.9036  -0.9036
    -0.3465  -0.3465  -0.0087  -0.0087   0.0520   0.0520   0.2852   0.2852

          k = 0.0000-0.4877-0.7327 ( 25324 PWs)   bands (ev):

   -24.2119 -24.2119  -9.9011  -9.9011  -9.4810  -9.4810  -9.4744  -9.4744
    -5.4436  -5.4436  -4.6237  -4.6237  -1.6173  -1.6173  -0.9016  -0.9016
    -0.2226  -0.2226  -0.0890  -0.0890  -0.0780  -0.0780   0.3128   0.3128

          k = 0.2463 0.0000 0.0000 ( 25221 PWs)   bands (ev):

   -24.2276 -24.2225  -9.7060  -9.6519  -9.5230  -9.4922  -9.3977  -9.3590
    -6.0527  -5.3743  -4.7625  -4.7490  -1.7281  -0.9145  -0.8821  -0.7499
    -0.2632  -0.1985  -0.1768  -0.1718   0.0438   0.0673   0.3763   0.4156

          k = 0.2463 0.0000 0.3664 ( 25281 PWs)   bands (ev):

   -24.2203 -24.2167  -9.6886  -9.6698  -9.6135  -9.5590  -9.4879  -9.4545
    -5.5972  -5.0543  -4.9441  -4.9241  -1.5003  -1.2947  -1.1793  -0.6193
    -0.5898  -0.3771  -0.1974  -0.0248   0.1046   0.2433   0.3644   0.3960

          k = 0.2463 0.0000-0.7327 ( 25326 PWs)   bands (ev):

   -24.2119 -24.2119  -9.8943  -9.8943  -9.4983  -9.4983  -9.4727  -9.4727
    -5.1881  -5.1881  -4.8766  -4.8766  -1.7713  -1.7712  -0.9115  -0.9114
    -0.2497  -0.2497  -0.0396  -0.0395   0.0928   0.0929   0.3181   0.3181

          k = 0.2463 0.2439 0.0000 ( 25285 PWs)   bands (ev):

   -24.2268 -24.2232  -9.7299  -9.6295  -9.5650  -9.4564  -9.3918  -9.3644
    -5.9278  -5.3700  -4.9494  -4.7593  -1.4928  -1.1446  -0.9111  -0.4703
    -0.3878  -0.3349  -0.1104   0.0157   0.0201   0.1338   0.2460   0.3550

          k = 0.2463 0.2439 0.3664 ( 25302 PWs)   bands (ev):

   -24.2197 -24.2172  -9.6891  -9.6589  -9.6412  -9.5433  -9.4952  -9.4493
    -5.5159  -5.0962  -5.0134  -4.9183  -1.4741  -1.2831  -1.1843  -0.6494
    -0.4674  -0.3217  -0.2033   0.0206   0.0660   0.1911   0.3166   0.3885

          k = 0.2463 0.2439-0.7327 ( 25296 PWs)   bands (ev):

   -24.2118 -24.2118  -9.9003  -9.8819  -9.5131  -9.4850  -9.4767  -9.4746
    -5.3564  -5.1819  -4.8782  -4.6979  -1.7813  -1.6627  -1.0382  -0.8815
    -0.3008  -0.2759  -0.0212   0.0538   0.0829   0.1520   0.2777   0.3034

          k = 0.2463-0.4877 0.0000 ( 25286 PWs)   bands (ev):

   -24.2250 -24.2250  -9.7059  -9.7059  -9.4883  -9.4883  -9.3779  -9.3779
    -5.6129  -5.6129  -4.9217  -4.9217  -1.2461  -1.2461  -0.6717  -0.6717
    -0.4323  -0.4323  -0.0295  -0.0295   0.1539   0.1539   0.2340   0.2340

          k = 0.2463-0.4877 0.3664 ( 25320 PWs)   bands (ev):

   -24.2184 -24.2184  -9.6837  -9.6837  -9.5939  -9.5939  -9.4627  -9.4627
    -5.3133  -5.3133  -4.9704  -4.9704  -1.4089  -1.4089  -0.8964  -0.8964
    -0.3415  -0.3415  -0.0339  -0.0339   0.1300   0.1300   0.2871   0.2871

          k = 0.2463-0.4877-0.7327 ( 25324 PWs)   bands (ev):

   -24.2118 -24.2118  -9.8885  -9.8885  -9.4985  -9.4985  -9.4793  -9.4793
    -5.3524  -5.3524  -4.6970  -4.6970  -1.6759  -1.6759  -1.0256  -1.0256
    -0.2058  -0.2058  -0.0684  -0.0684   0.1467   0.1467   0.2973   0.2973

          k =-0.4926 0.0000 0.0000 ( 25234 PWs)   bands (ev):

   -24.2250 -24.2250  -9.6288  -9.6288  -9.5708  -9.5708  -9.3782  -9.3782
    -5.6634  -5.6634  -4.8246  -4.8246  -1.3254  -1.3254  -0.5355  -0.5355
    -0.2199  -0.2199  -0.2046  -0.2046  -0.1033  -0.1033   0.2615   0.2615

          k =-0.4926 0.0000 0.3664 ( 25310 PWs)   bands (ev):

   -24.2184 -24.2184  -9.6964  -9.6964  -9.5590  -9.5590  -9.4868  -9.4868
    -5.2901  -5.2901  -4.9748  -4.9748  -1.4316  -1.4316  -0.9128  -0.9128
    -0.3264  -0.3264  -0.1721  -0.1721   0.1761   0.1761   0.3512   0.3512

          k =-0.4926 0.0000-0.7327 ( 25284 PWs)   bands (ev):

   -24.2118 -24.2118  -9.9072  -9.9072  -9.4911  -9.4911  -9.4666  -9.4666
    -5.2436  -5.2436  -4.7968  -4.7968  -1.9579  -1.9579  -0.6536  -0.6536
    -0.2439  -0.2439  -0.1729  -0.1729   0.2525   0.2525   0.2604   0.2604

          k =-0.4926 0.2439 0.0000 ( 25308 PWs)   bands (ev):

   -24.2250 -24.2250  -9.7040  -9.7040  -9.4923  -9.4923  -9.3780  -9.3780
    -5.6473  -5.6473  -4.8606  -4.8606  -1.2538  -1.2538  -0.5828  -0.5828
    -0.3785  -0.3785  -0.2150  -0.2150   0.0861   0.0861   0.2694   0.2694

          k =-0.4926 0.2439 0.3664 ( 25294 PWs)   bands (ev):

   -24.2184 -24.2184  -9.6843  -9.6843  -9.5979  -9.5979  -9.4613  -9.4613
    -5.2575  -5.2575  -5.0105  -5.0105  -1.4398  -1.4398  -0.9252  -0.9252
    -0.2724  -0.2724  -0.1440  -0.1440   0.1937   0.1937   0.3047   0.3047

          k =-0.4926 0.2439-0.7327 ( 25312 PWs)   bands (ev):

   -24.2118 -24.2118  -9.8917  -9.8917  -9.5018  -9.5018  -9.4769  -9.4769
    -5.2377  -5.2377  -4.7982  -4.7982  -1.8683  -1.8683  -0.8757  -0.8757
    -0.2007  -0.2007  -0.1066  -0.1066   0.2061   0.2061   0.3559   0.3559

          k =-0.4926-0.4877 0.0000 ( 25336 PWs)   bands (ev):

   -24.2250 -24.2250  -9.7435  -9.7435  -9.4495  -9.4495  -9.3777  -9.3777
    -5.6301  -5.6301  -4.8972  -4.8972  -1.1561  -1.1561  -0.7159  -0.7159
    -0.4638  -0.4638  -0.0623  -0.0623   0.1857   0.1857   0.1869   0.1869

          k =-0.4926-0.4877 0.3664 ( 25292 PWs)   bands (ev):

   -24.2184 -24.2184  -9.6540  -9.6540  -9.6454  -9.6454  -9.4454  -9.4454
    -5.2120  -5.2120  -5.0590  -5.0590  -1.4357  -1.4357  -0.9721  -0.9721
    -0.2154  -0.2154   0.0350   0.0350   0.0649   0.0649   0.2728   0.2728

          k =-0.4926-0.4877-0.7327 ( 25320 PWs)   bands (ev):

   -24.2118 -24.2118  -9.8747  -9.8747  -9.5181  -9.5181  -9.4831  -9.4831
    -5.2323  -5.2323  -4.7990  -4.7990  -1.7249  -1.7249  -1.1520  -1.1520
    -0.1003  -0.1003   0.0626   0.0626   0.0943   0.0943   0.3526   0.3526

     highest occupied level (ev):     0.4772

!    total energy              =    -156.47320340 Ry
     estimated scf accuracy    <          7.9E-13 Ry

     The total energy is the sum of the following terms:
     one-electron contribution =     -26.91786248 Ry
     hartree contribution      =      27.29022677 Ry
     xc contribution           =     -49.07960538 Ry
     ewald contribution        =    -107.76596231 Ry

     convergence has been achieved in  13 iterations

     Forces acting on atoms (cartesian axes, Ry/au):

     atom    1 type  2   force =     0.00000000    0.00000000   -0.00000246
     atom    2 type  2   force =     0.00000000    0.00000000    0.00000246
     atom    3 type  1   force =    -0.00000150    0.00000109   -0.00000289
     atom    4 type  1   force =     0.00000150   -0.00000109   -0.00000289
     atom    5 type  1   force =    -0.00000150   -0.00000109    0.00000289
     atom    6 type  1   force =     0.00000150    0.00000109    0.00000289
     atom    7 type  3   force =     0.00000236   -0.00000006    0.00000836
     atom    8 type  3   force =    -0.00000236    0.00000006    0.00000836
     atom    9 type  3   force =     0.00000236    0.00000006   -0.00000836
     atom   10 type  3   force =    -0.00000236   -0.00000006   -0.00000836
     atom   11 type  3   force =    -0.00000107   -0.00000201   -0.00000055
     atom   12 type  3   force =     0.00000107    0.00000201   -0.00000055
     atom   13 type  3   force =    -0.00000107    0.00000201    0.00000055
     atom   14 type  3   force =     0.00000107   -0.00000201    0.00000055
     atom   15 type  3   force =     0.00000333   -0.00000110   -0.00000051
     atom   16 type  3   force =    -0.00000333    0.00000110   -0.00000051
     atom   17 type  3   force =     0.00000333    0.00000110    0.00000051
     atom   18 type  3   force =    -0.00000333   -0.00000110    0.00000051
     atom   19 type  3   force =     0.00000230   -0.00000238   -0.00000324
     atom   20 type  3   force =    -0.00000230    0.00000238   -0.00000324
     atom   21 type  3   force =     0.00000230    0.00000238    0.00000324
     atom   22 type  3   force =    -0.00000230   -0.00000238    0.00000324

     Total force =     0.000023     Total SCF correction =     0.000000


     Computing stress (Cartesian axis) and pressure

          total   stress  (Ry/bohr**3)                   (kbar)     P=       -6.06
  -0.00004115   0.00000000   0.00000000           -6.05        0.00        0.00
   0.00000000  -0.00004118   0.00000000            0.00       -6.06        0.00
   0.00000000   0.00000000  -0.00004118            0.00        0.00       -6.06


     Writing all to output data dir ./pwscf.save/ :
     XML data file, charge density, pseudopotentials, collected wavefunctions

     init_run     :     16.21s CPU     18.55s WALL (       2 calls)
     electrons    :   6720.51s CPU   6773.27s WALL (      59 calls)
     update_pot   :     10.10s CPU     11.13s WALL (      57 calls)
     forces       :    223.65s CPU    225.10s WALL (      59 calls)
     stress       :    519.88s CPU    521.77s WALL (      59 calls)

     Called by init_run:
     wfcinit      :     13.97s CPU     14.05s WALL (       2 calls)
     potinit      :      0.56s CPU      1.30s WALL (       2 calls)
     hinit0       :      0.77s CPU      2.21s WALL (       2 calls)

     Called by electrons:
     c_bands      :   5816.79s CPU   5854.74s WALL (     442 calls)
     sum_band     :    802.85s CPU    810.94s WALL (     442 calls)
     v_of_rho     :     45.93s CPU     48.86s WALL (     456 calls)
     newd         :     55.09s CPU     56.38s WALL (     456 calls)
     mix_rho      :      5.94s CPU      6.51s WALL (     442 calls)

     Called by c_bands:
     init_us_2    :    133.62s CPU    135.50s WALL (   27108 calls)
     cegterg      :   5610.76s CPU   5646.86s WALL (   11934 calls)

     Called by *egterg:
     cdiaghg      :     76.58s CPU     77.24s WALL (   47967 calls)
     h_psi        :   3871.73s CPU   3901.89s WALL (   50775 calls)
     s_psi        :    931.28s CPU    933.28s WALL (   50775 calls)
     g_psi        :     11.35s CPU     11.44s WALL (   38787 calls)

     Called by h_psi:
     h_psi:calbec :    970.30s CPU    973.18s WALL (   50775 calls)
     vloc_psi     :   1945.99s CPU   1971.65s WALL (   50775 calls)
     add_vuspsi   :    941.86s CPU    943.95s WALL (   50775 calls)

     General routines
     calbec       :   1535.80s CPU   1539.98s WALL (   70674 calls)
     fft          :     33.31s CPU     39.51s WALL (    7387 calls)
     ffts         :      1.93s CPU      2.84s WALL (     898 calls)
     fftw         :   1803.22s CPU   1824.63s WALL ( 2077314 calls)
     interpolate  :      3.57s CPU      4.67s WALL (     456 calls)

     Parallel routines

     PWSCF        :      2h 5m CPU      2h 6m WALL


   This run was terminated on:  18: 0:45  12Jul2024            

=------------------------------------------------------------------------------=
   JOB DONE.
=------------------------------------------------------------------------------=
