
     Program PWSCF v.7.3.1 starts on 12Jul2024 at 12:17:12 

     This program is part of the open-source Quantum ESPRESSO suite
     for quantum simulation of materials; please cite
         "P. Giannozzi et al., J. Phys.:Condens. Matter 21 395502 (2009);
         "P. Giannozzi et al., J. Phys.:Condens. Matter 29 465901 (2017);
         "P. Giannozzi et al., J. Chem. Phys. 152 154105 (2020);
          URL http://www.quantum-espresso.org", 
     in publications or presentations arising from this work. More details at
     http://www.quantum-espresso.org/quote

     Parallel version (MPI), running on    24 processors

     MPI processes distributed on     1 nodes
     94401 MiB available memory on the printing compute node when the environment starts

     Waiting for input...
     Reading input from standard input

     Current dimensions of program PWSCF are:
     Max number of different atomic species (ntypx) = 10
     Max number of k-points (npk) =  40000
     Max angular momentum in pseudopotentials (lmaxx) =  4

     R & G space division:  proc/nbgrp/npool/nimage =      24
     Subspace diagonalization in iterative solution of the eigenvalue problem:
     a serial algorithm will be used


     Parallelization info
     --------------------
     sticks:   dense  smooth     PW     G-vecs:    dense   smooth      PW
     Min         423     211     57                22152     7831    1104
     Max         425     212     59                22153     7834    1106
     Sum       10157    5067   1379               531671   187989   26519

     Using Slab Decomposition


     Title: 
     pre-ph                                                                     


     bravais-lattice index     =            8
     lattice parameter (alat)  =      12.4329  a.u.
     unit-cell volume          =    1391.2960 (a.u.)^3
     number of atoms/cell      =           22
     number of atomic types    =            3
     number of electrons       =        48.00
     number of Kohn-Sham states=           24
     kinetic-energy cutoff     =     100.0000  Ry
     charge density cutoff     =     800.0000  Ry
     scf convergence threshold =      1.0E-10
     mixing beta               =       0.7000
     number of iterations used =            8  plain     mixing
     Exchange-correlation= PBESOL
                           (   1   4  10   8   0   0   0)

     celldm(1)=  12.432929  celldm(2)=   1.033108  celldm(3)=   0.700735
     celldm(4)=   0.000000  celldm(5)=   0.000000  celldm(6)=   0.000000

     crystal axes: (cart. coord. in units of alat)
               a(1) = (   1.000000   0.000000   0.000000 )  
               a(2) = (   0.000000   1.033108   0.000000 )  
               a(3) = (   0.000000   0.000000   0.700735 )  

     reciprocal axes: (cart. coord. in units 2 pi/alat)
               b(1) = (  1.000000  0.000000  0.000000 )  
               b(2) = (  0.000000  0.967953  0.000000 )  
               b(3) = (  0.000000  0.000000  1.427074 )  


     PseudoPot. # 1 for B  read from file:
     /home/mehlhorn/pseudos/b_pbesol_v1.4.uspp.F.UPF
     MD5 check sum: 369b69bef2c3aeed4453bd8b804fd6a8
     Pseudo is Ultrasoft + core correction, Zval =  3.0
     Generated by new atomic code, or converted to UPF format
     Using radial grid of  781 points,  4 beta functions with: 
                l(1) =   0
                l(2) =   0
                l(3) =   1
                l(4) =   1
     Q(r) pseudized with  8 coefficients,  rinner =    1.100   1.100   1.100


     PseudoPot. # 2 for Ba read from file:
     /home/mehlhorn/pseudos/Ba.nc.z_10.oncvpsp4.dojo.v4-sp.upf
     MD5 check sum: c10ed334bb677c0554edec7181ce9143
     Pseudo is Norm-conserving + core correction, Zval = 10.0
     Generated using ONCVPSP code by D. R. Hamann
     Using radial grid of 1938 points,  8 beta functions with: 
                l(1) =   0
                l(2) =   0
                l(3) =   1
                l(4) =   1
                l(5) =   2
                l(6) =   2
                l(7) =   3
                l(8) =   3

     PseudoPot. # 3 for H  read from file:
     /home/mehlhorn/pseudos/H_ONCV_PBEsol-1.0.upf
     MD5 check sum: 398ef8f67c0a7342c05c87c5e19ea467
     Pseudo is Norm-conserving, Zval =  1.0
     Generated using ONCVPSP code by D. R. Hamann
     Using radial grid of 1180 points,  2 beta functions with: 
                l(1) =   0
                l(2) =   0

     atomic species   valence    mass     pseudopotential
     B                 3.00    10.81100     B ( 1.00)
     Ba               10.00   137.32700     Ba( 1.00)
     H                 1.00     1.00794     H ( 1.00)

      4 Sym. Ops. (no inversion) found ( 2 have fractional translation)



   Cartesian axes

     site n.     atom                  positions (alat units)
         1        Ba     tau(   1) = (   0.5000000   0.5165539   0.3503707  )
         2        Ba     tau(   2) = (   0.0000000   0.0000000   0.7007314  )
         3        B      tau(   3) = (   0.6066863   0.2446937  -0.0000017  )
         4        B      tau(   4) = (   0.3933137   0.7884140  -0.0000017  )
         5        B      tau(   5) = (   0.1066863   0.2718602   0.3503691  )
         6        B      tau(   6) = (   0.8933137   0.7612476   0.3503691  )
         7        H      tau(   7) = (   0.4289459   0.3026889  -0.0000085  )
         8        H      tau(   8) = (   0.5710541   0.7304189  -0.0000085  )
         9        H      tau(   9) = (   0.9289459   0.2138650   0.3503759  )
        10        H      tau(  10) = (   0.0710541   0.8192427   0.3503759  )
        11        H      tau(  11) = (   0.7226549   0.3930599   0.0000136  )
        12        H      tau(  12) = (   0.2773451   0.6400478   0.0000136  )
        13        H      tau(  13) = (   0.2226549   0.1234939   0.3503538  )
        14        H      tau(  14) = (   0.7773451   0.9096138   0.3503538  )
        15        H      tau(  15) = (   0.6346896   0.1432322   0.5465463  )
        16        H      tau(  16) = (   0.3653104   0.8898755   0.5465463  )
        17        H      tau(  17) = (   0.1346896   0.3733217   0.5045557  )
        18        H      tau(  18) = (   0.8653104   0.6597861   0.5045557  )
        19        H      tau(  19) = (   0.3653298   0.8898695   0.1541900  )
        20        H      tau(  20) = (   0.6346702   0.1432382   0.1541900  )
        21        H      tau(  21) = (   0.8653298   0.6597921   0.1961773  )
        22        H      tau(  22) = (   0.1346702   0.3733157   0.1961773  )

     number of k points=    27
                       cart. coord. in units 2pi/alat
        k(    1) = (   0.0000000   0.0000000   0.0000000), wk =   0.0160000
        k(    2) = (   0.0000000   0.0000000   0.2854147), wk =   0.0320000
        k(    3) = (   0.0000000   0.0000000   0.5708295), wk =   0.0320000
        k(    4) = (   0.0000000   0.1935907   0.0000000), wk =   0.0320000
        k(    5) = (   0.0000000   0.1935907   0.2854147), wk =   0.0640000
        k(    6) = (   0.0000000   0.1935907   0.5708295), wk =   0.0640000
        k(    7) = (   0.0000000   0.3871813   0.0000000), wk =   0.0320000
        k(    8) = (   0.0000000   0.3871813   0.2854147), wk =   0.0640000
        k(    9) = (   0.0000000   0.3871813   0.5708295), wk =   0.0640000
        k(   10) = (   0.2000000   0.0000000   0.0000000), wk =   0.0320000
        k(   11) = (   0.2000000   0.0000000   0.2854147), wk =   0.0640000
        k(   12) = (   0.2000000   0.0000000   0.5708295), wk =   0.0640000
        k(   13) = (   0.2000000   0.1935907   0.0000000), wk =   0.0640000
        k(   14) = (   0.2000000   0.1935907   0.2854147), wk =   0.1280000
        k(   15) = (   0.2000000   0.1935907   0.5708295), wk =   0.1280000
        k(   16) = (   0.2000000   0.3871813   0.0000000), wk =   0.0640000
        k(   17) = (   0.2000000   0.3871813   0.2854147), wk =   0.1280000
        k(   18) = (   0.2000000   0.3871813   0.5708295), wk =   0.1280000
        k(   19) = (   0.4000000   0.0000000   0.0000000), wk =   0.0320000
        k(   20) = (   0.4000000   0.0000000   0.2854147), wk =   0.0640000
        k(   21) = (   0.4000000   0.0000000   0.5708295), wk =   0.0640000
        k(   22) = (   0.4000000   0.1935907   0.0000000), wk =   0.0640000
        k(   23) = (   0.4000000   0.1935907   0.2854147), wk =   0.1280000
        k(   24) = (   0.4000000   0.1935907   0.5708295), wk =   0.1280000
        k(   25) = (   0.4000000   0.3871813   0.0000000), wk =   0.0640000
        k(   26) = (   0.4000000   0.3871813   0.2854147), wk =   0.1280000
        k(   27) = (   0.4000000   0.3871813   0.5708295), wk =   0.1280000

     Dense  grid:   531671 G-vectors     FFT dimensions: ( 120, 120,  80)

     Smooth grid:   187989 G-vectors     FFT dimensions: (  80,  90,  60)

     Estimated max dynamical RAM per process >      65.33 MB

     Estimated total dynamical RAM >       1.53 GB

     Initial potential from superposition of free atoms

     starting charge      47.9682, renormalised to      48.0000
     Starting wfcs are   42 randomized atomic wfcs

     total cpu time spent up to now is       11.3 secs

     Self-consistent Calculation

     iteration #  1     ecut=   100.00 Ry     beta= 0.70
     Davidson diagonalization with overlap
     ethr =  1.00E-02,  avg # of iterations =  2.0

     total cpu time spent up to now is       25.7 secs

     total energy              =    -155.93214121 Ry
     estimated scf accuracy    <       2.06604932 Ry

     iteration #  2     ecut=   100.00 Ry     beta= 0.70
     Davidson diagonalization with overlap
     ethr =  4.30E-03,  avg # of iterations =  2.0

     total cpu time spent up to now is       39.6 secs

     total energy              =    -156.40971787 Ry
     estimated scf accuracy    <       0.36546355 Ry

     iteration #  3     ecut=   100.00 Ry     beta= 0.70
     Davidson diagonalization with overlap
     ethr =  7.61E-04,  avg # of iterations =  2.0

     total cpu time spent up to now is       53.4 secs

     total energy              =    -156.47052234 Ry
     estimated scf accuracy    <       0.00486355 Ry

     iteration #  4     ecut=   100.00 Ry     beta= 0.70
     Davidson diagonalization with overlap
     ethr =  1.01E-05,  avg # of iterations =  5.1

     total cpu time spent up to now is       73.7 secs

     total energy              =    -156.47365551 Ry
     estimated scf accuracy    <       0.00166056 Ry

     iteration #  5     ecut=   100.00 Ry     beta= 0.70
     Davidson diagonalization with overlap
     ethr =  3.46E-06,  avg # of iterations =  3.4

     total cpu time spent up to now is       88.0 secs

     total energy              =    -156.47423325 Ry
     estimated scf accuracy    <       0.00016534 Ry

     iteration #  6     ecut=   100.00 Ry     beta= 0.70
     Davidson diagonalization with overlap
     ethr =  3.44E-07,  avg # of iterations =  4.3

     total cpu time spent up to now is      104.2 secs

     total energy              =    -156.47429637 Ry
     estimated scf accuracy    <       0.00000133 Ry

     iteration #  7     ecut=   100.00 Ry     beta= 0.70
     Davidson diagonalization with overlap
     ethr =  2.77E-09,  avg # of iterations =  9.0

     total cpu time spent up to now is      136.0 secs

     total energy              =    -156.47430634 Ry
     estimated scf accuracy    <       0.00000101 Ry

     iteration #  8     ecut=   100.00 Ry     beta= 0.70
     Davidson diagonalization with overlap
     ethr =  2.10E-09,  avg # of iterations =  2.1

     total cpu time spent up to now is      149.9 secs

     total energy              =    -156.47430661 Ry
     estimated scf accuracy    <       0.00000005 Ry

     iteration #  9     ecut=   100.00 Ry     beta= 0.70
     Davidson diagonalization with overlap
     ethr =  1.10E-10,  avg # of iterations =  4.8

     total cpu time spent up to now is      166.5 secs

     total energy              =    -156.47430663 Ry
     estimated scf accuracy    <          4.6E-09 Ry

     iteration # 10     ecut=   100.00 Ry     beta= 0.70
     Davidson diagonalization with overlap
     ethr =  9.51E-12,  avg # of iterations =  4.2

     total cpu time spent up to now is      183.6 secs

     total energy              =    -156.47430663 Ry
     estimated scf accuracy    <          1.3E-09 Ry

     iteration # 11     ecut=   100.00 Ry     beta= 0.70
     Davidson diagonalization with overlap
     ethr =  2.78E-12,  avg # of iterations =  2.9

     total cpu time spent up to now is      197.9 secs

     End of self-consistent calculation

          k = 0.0000 0.0000 0.0000 ( 23517 PWs)   bands (ev):

   -23.5256 -23.5144  -9.1397  -9.0315  -8.8076  -8.7644  -8.7418  -8.6663
    -5.8667  -4.8536  -4.0749  -3.9117  -1.5738  -0.6350  -0.5259  -0.1890
     0.2346   0.2735   0.2956   0.4591   0.5633   1.0450   1.0555   1.0998

          k = 0.0000 0.0000 0.2854 ( 23486 PWs)   bands (ev):

   -23.5195 -23.5104  -9.0674  -8.9821  -8.9425  -8.9043  -8.7925  -8.7634
    -5.4901  -4.6483  -4.2084  -4.0889  -1.2855  -0.8055  -0.4726  -0.2430
    -0.1405  -0.0168   0.3010   0.5336   0.8928   0.8965   0.9308   1.1258

          k = 0.0000 0.0000 0.5708 ( 23538 PWs)   bands (ev):

   -23.5085 -23.5050  -9.2239  -9.2172  -8.9167  -8.8832  -8.7908  -8.7814
    -4.8105  -4.4585  -4.4213  -4.3842  -1.0264  -0.9409  -0.7229  -0.7112
    -0.0628   0.0666   0.3897   0.4690   0.8225   0.8806   1.0119   1.0460

          k = 0.0000 0.1936 0.0000 ( 23465 PWs)   bands (ev):

   -23.5245 -23.5155  -9.1185  -9.0081  -8.8527  -8.7917  -8.7344  -8.6733
    -5.7204  -4.7785  -4.3018  -4.0134  -1.2984  -0.6941  -0.6750   0.0627
     0.1398   0.1552   0.4411   0.5903   0.6616   0.8271   0.9839   1.0381

          k = 0.0000 0.1936 0.2854 ( 23494 PWs)   bands (ev):

   -23.5186 -23.5113  -9.0672  -8.9696  -8.9306  -8.9197  -8.7937  -8.7828
    -5.3881  -4.6261  -4.3351  -4.1467  -1.1097  -0.8377  -0.6426  -0.0408
    -0.0085   0.0690   0.1078   0.6443   0.8393   0.8746   0.9119   1.0018

          k = 0.0000 0.1936 0.5708 ( 23513 PWs)   bands (ev):

   -23.5082 -23.5053  -9.2373  -9.2305  -8.8896  -8.8687  -8.7906  -8.7884
    -4.9127  -4.7370  -4.2512  -4.1661  -0.9860  -0.9457  -0.8323  -0.6009
     0.0700   0.1840   0.3319   0.4827   0.7376   0.8581   0.8965   1.0219

          k = 0.0000 0.3872 0.0000 ( 23445 PWs)   bands (ev):

   -23.5217 -23.5182  -9.0549  -8.9638  -8.9348  -8.8606  -8.7152  -8.6919
    -5.3339  -4.8312  -4.5310  -4.2617  -0.8596  -0.8062  -0.5589   0.0412
     0.0462   0.1710   0.4434   0.6767   0.7287   0.7570   0.8305   0.9526

          k = 0.0000 0.3872 0.2854 ( 23485 PWs)   bands (ev):

   -23.5163 -23.5135  -9.0501  -9.0049  -8.9087  -8.8799  -8.8252  -8.8131
    -5.1154  -4.7687  -4.4170  -4.2836  -0.8639  -0.8265  -0.6641  -0.2428
     0.1628   0.2494   0.3277   0.5484   0.6702   0.7242   0.9319   0.9362

          k = 0.0000 0.3872 0.5708 ( 23506 PWs)   bands (ev):

   -23.5073 -23.5062  -9.2548  -9.2516  -8.8399  -8.8399  -8.8066  -8.7997
    -5.0041  -4.9469  -4.0754  -4.0292  -1.0499  -1.0292  -0.6171  -0.4258
     0.1706   0.1925   0.3639   0.4564   0.6457   0.6878   0.8645   0.9584

          k = 0.2000 0.0000 0.0000 ( 23499 PWs)   bands (ev):

   -23.5245 -23.5154  -9.1100  -9.0203  -8.8418  -8.8084  -8.7344  -8.6733
    -5.7236  -4.8587  -4.1070  -4.0391  -1.4414  -0.4787  -0.4183  -0.3821
     0.2448   0.3003   0.4050   0.4452   0.5560   0.6924   1.0561   1.0642

          k = 0.2000 0.0000 0.2854 ( 23485 PWs)   bands (ev):

   -23.5186 -23.5113  -9.0469  -9.0146  -8.9304  -8.8995  -8.8151  -8.7682
    -5.3686  -4.6341  -4.2380  -4.1981  -1.1908  -0.8513  -0.4741  -0.2875
    -0.1320   0.0947   0.3974   0.5770   0.6372   0.8447   1.0362   1.0812

          k = 0.2000 0.0000 0.5708 ( 23514 PWs)   bands (ev):

   -23.5081 -23.5053  -9.2413  -9.2353  -8.8989  -8.8632  -8.7976  -8.7822
    -4.7666  -4.5289  -4.4113  -4.3257  -1.3414  -1.1361  -0.6642  -0.3577
    -0.0157   0.2965   0.3649   0.5779   0.7343   0.8541   0.9361   1.0431

          k = 0.2000 0.1936 0.0000 ( 23487 PWs)   bands (ev):

   -23.5236 -23.5163  -9.1237  -8.9690  -8.9286  -8.7739  -8.7283  -8.6789
    -5.6073  -4.8004  -4.3359  -4.0725  -1.2037  -0.6614  -0.5228  -0.0658
     0.1071   0.1635   0.5683   0.5760   0.6506   0.6836   0.8440   1.0212

          k = 0.2000 0.1936 0.2854 ( 23496 PWs)   bands (ev):

   -23.5179 -23.5119  -9.0589  -9.0013  -8.9536  -8.8782  -8.8217  -8.7683
    -5.2813  -4.5991  -4.3967  -4.2088  -1.0675  -0.8407  -0.6375  -0.1490
    -0.0193   0.1392   0.3202   0.5766   0.6840   0.8097   0.9500   1.0472

          k = 0.2000 0.1936 0.5708 ( 23488 PWs)   bands (ev):

   -23.5079 -23.5056  -9.2528  -9.2244  -8.9131  -8.8353  -8.8056  -8.7863
    -4.8729  -4.6470  -4.3502  -4.1526  -1.2970  -1.1319  -0.6099  -0.3784
     0.0425   0.2567   0.3897   0.5622   0.7157   0.8248   0.8964   1.0229

          k = 0.2000 0.3872 0.0000 ( 23473 PWs)   bands (ev):

   -23.5213 -23.5185  -9.1075  -9.0378  -8.8751  -8.7982  -8.7126  -8.6937
    -5.2918  -4.8852  -4.4923  -4.2709  -0.7824  -0.7549  -0.4983   0.0043
     0.0264   0.1235   0.3453   0.7031   0.7482   0.7906   0.7963   0.8373

          k = 0.2000 0.3872 0.2854 ( 23494 PWs)   bands (ev):

   -23.5160 -23.5138  -9.0596  -9.0291  -8.9320  -8.8816  -8.8117  -8.7798
    -5.0447  -4.7303  -4.4603  -4.3216  -0.9372  -0.8350  -0.5710  -0.2335
     0.1840   0.2261   0.3382   0.5500   0.6070   0.7369   0.9198   0.9543

          k = 0.2000 0.3872 0.5708 ( 23504 PWs)   bands (ev):

   -23.5071 -23.5063  -9.2498  -9.2327  -8.8947  -8.8497  -8.7997  -8.7892
    -4.9337  -4.8507  -4.1520  -4.0705  -1.2115  -1.1466  -0.4865  -0.3776
     0.0803   0.2178   0.3717   0.5172   0.7246   0.8017   0.8530   0.9529

          k = 0.4000 0.0000 0.0000 ( 23502 PWs)   bands (ev):

   -23.5216 -23.5182  -9.0306  -8.9790  -8.9284  -8.9005  -8.7152  -8.6918
    -5.3705  -5.0036  -4.1996  -4.1793  -1.1145  -0.7296  -0.2701   0.0801
     0.1560   0.2656   0.3198   0.3882   0.4928   0.5395   0.8554   0.9587

          k = 0.4000 0.0000 0.2854 ( 23485 PWs)   bands (ev):

   -23.5163 -23.5135  -9.0314  -9.0196  -8.9481  -8.8897  -8.8304  -8.7910
    -5.0605  -4.7272  -4.3469  -4.3077  -1.0175  -0.7981  -0.6810  -0.2911
     0.0384   0.2897   0.3074   0.3869   0.6734   0.7925   1.0227   1.0363

          k = 0.4000 0.0000 0.5708 ( 23521 PWs)   bands (ev):

   -23.5072 -23.5061  -9.2655  -9.2630  -8.8624  -8.8364  -8.8088  -8.7910
    -4.6856  -4.6132  -4.3600  -4.3030  -1.5432  -1.4598  -0.3383  -0.1324
     0.0965   0.2332   0.4214   0.5144   0.8130   0.8512   0.9401   1.0257

          k = 0.4000 0.1936 0.0000 ( 23505 PWs)   bands (ev):

   -23.5213 -23.5185  -9.1044  -9.0355  -8.8860  -8.8079  -8.7126  -8.6937
    -5.3190  -4.9878  -4.3128  -4.1949  -0.9661  -0.7248  -0.1986  -0.0251
     0.0952   0.1265   0.2329   0.4795   0.6120   0.6693   0.8120   0.9330

          k = 0.4000 0.1936 0.2854 ( 23495 PWs)   bands (ev):

   -23.5160 -23.5137  -9.0550  -9.0340  -8.9462  -8.8916  -8.8083  -8.7759
    -5.0102  -4.7019  -4.4311  -4.3254  -0.9983  -0.8343  -0.6177  -0.2544
     0.0433   0.2705   0.3649   0.4944   0.6231   0.7626   0.9509   1.0118

          k = 0.4000 0.1936 0.5708 ( 23516 PWs)   bands (ev):

   -23.5071 -23.5062  -9.2569  -9.2403  -8.8983  -8.8538  -8.7989  -8.7888
    -4.7474  -4.5847  -4.3898  -4.2266  -1.4799  -1.4119  -0.3457  -0.2242
     0.0943   0.2079   0.4189   0.5752   0.7716   0.8510   0.9417   1.0264

          k = 0.4000 0.3872 0.0000 ( 23502 PWs)   bands (ev):

   -23.5204 -23.5193  -9.1472  -9.1225  -8.7941  -8.7622  -8.7062  -8.6990
    -5.1779  -5.0239  -4.3963  -4.3108  -0.6726  -0.6541  -0.3124  -0.0632
    -0.0331  -0.0212   0.3171   0.5488   0.7146   0.7607   0.7978   0.8200

          k = 0.4000 0.3872 0.2854 ( 23476 PWs)   bands (ev):

   -23.5153 -23.5144  -9.0777  -9.0680  -8.9274  -8.9048  -8.7737  -8.7610
    -4.8753  -4.7180  -4.5022  -4.4138  -0.9498  -0.8781  -0.5122  -0.3561
     0.2435   0.3959   0.4175   0.5419   0.5737   0.7342   0.8094   0.8856

          k = 0.4000 0.3872 0.5708 ( 23504 PWs)   bands (ev):

   -23.5068 -23.5065  -9.2265  -9.2137  -8.9300  -8.9047  -8.7897  -8.7884
    -4.7581  -4.6860  -4.2779  -4.2041  -1.3405  -1.3119  -0.4919  -0.4764
     0.2406   0.3860   0.5036   0.5496   0.7189   0.7470   0.9262   0.9704

     highest occupied level (ev):     1.1258

!    total energy              =    -156.47430663 Ry
     estimated scf accuracy    <          4.0E-11 Ry

     The total energy is the sum of the following terms:
     one-electron contribution =     -18.96607817 Ry
     hartree contribution      =      24.40312679 Ry
     xc contribution           =     -49.19106528 Ry
     ewald contribution        =    -112.72028996 Ry

     convergence has been achieved in  11 iterations

     Writing all to output data dir ./pwscf.save/ :
     XML data file, charge density, pseudopotentials, collected wavefunctions

     init_run     :      9.19s CPU     10.83s WALL (       1 calls)
     electrons    :    185.03s CPU    186.70s WALL (       1 calls)

     Called by init_run:
     wfcinit      :      6.66s CPU      6.71s WALL (       1 calls)
     potinit      :      0.72s CPU      1.33s WALL (       1 calls)
     hinit0       :      0.96s CPU      1.90s WALL (       1 calls)

     Called by electrons:
     c_bands      :    163.72s CPU    164.92s WALL (      11 calls)
     sum_band     :     17.87s CPU     18.16s WALL (      11 calls)
     v_of_rho     :      1.36s CPU      1.43s WALL (      12 calls)
     newd         :      2.01s CPU      2.05s WALL (      12 calls)
     mix_rho      :      0.20s CPU      0.22s WALL (      11 calls)

     Called by c_bands:
     init_us_2    :      3.60s CPU      3.68s WALL (     621 calls)
     cegterg      :    145.85s CPU    146.96s WALL (     297 calls)

     Called by *egterg:
     cdiaghg      :      2.78s CPU      2.80s WALL (    1425 calls)
     h_psi        :    102.64s CPU    103.58s WALL (    1452 calls)
     s_psi        :     20.71s CPU     20.78s WALL (    1452 calls)
     g_psi        :      0.44s CPU      0.44s WALL (    1128 calls)

     Called by h_psi:
     h_psi:calbec :     18.34s CPU     18.46s WALL (    1452 calls)
     vloc_psi     :     63.18s CPU     63.92s WALL (    1452 calls)
     add_vuspsi   :     20.77s CPU     20.85s WALL (    1452 calls)

     General routines
     calbec       :     23.41s CPU     23.56s WALL (    1749 calls)
     fft          :      1.57s CPU      2.57s WALL (     154 calls)
     ffts         :      0.61s CPU      1.20s WALL (      23 calls)
     fftw         :     61.48s CPU     62.17s WALL (   57412 calls)
     interpolate  :      0.65s CPU      1.26s WALL (      12 calls)

     Parallel routines

     PWSCF        :   3m15.05s CPU   3m19.10s WALL


   This run was terminated on:  12:20:31  12Jul2024            

=------------------------------------------------------------------------------=
   JOB DONE.
=------------------------------------------------------------------------------=
