
     Program PHONON v.7.3.1 starts on 12Jul2024 at 12:20:32 

     This program is part of the open-source Quantum ESPRESSO suite
     for quantum simulation of materials; please cite
         "P. Giannozzi et al., J. Phys.:Condens. Matter 21 395502 (2009);
         "P. Giannozzi et al., J. Phys.:Condens. Matter 29 465901 (2017);
         "P. Giannozzi et al., J. Chem. Phys. 152 154105 (2020);
          URL http://www.quantum-espresso.org", 
     in publications or presentations arising from this work. More details at
     http://www.quantum-espresso.org/quote

     Parallel version (MPI), running on    24 processors

     MPI processes distributed on     1 nodes
     94157 MiB available memory on the printing compute node when the environment starts

     Waiting for input...
     Reading input from standard input

     Reading xml data from directory:

     ./pwscf.save/

     R & G space division:  proc/nbgrp/npool/nimage =      24
     Subspace diagonalization in iterative solution of the eigenvalue problem:
     a serial algorithm will be used


     IMPORTANT: XC functional enforced from input :
     Exchange-correlation= PBESOL
                           (   1   4  10   8   0   0   0)
     Any further DFT definition will be discarded
     Please, verify this is what you really want


     Parallelization info
     --------------------
     sticks:   dense  smooth     PW     G-vecs:    dense   smooth      PW
     Min         423     211     57                22152     7831    1104
     Max         425     212     59                22153     7834    1106
     Sum       10157    5067   1379               531671   187989   26519

     Using Slab Decomposition

     Reading collected, re-writing distributed wavefunctions in ./


     Dynamical matrices for ( 3, 3, 3)  uniform grid of q-points
     (   8 q-points):
       N         xq(1)         xq(2)         xq(3) 
       1   0.000000000   0.000000000   0.000000000
       2   0.000000000   0.000000000   0.475691218
       3   0.000000000   0.322651085   0.000000000
       4   0.000000000   0.322651085   0.475691218
       5   0.333333333   0.000000000   0.000000000
       6   0.333333333   0.000000000   0.475691218
       7   0.333333333   0.322651085   0.000000000
       8   0.333333333   0.322651085   0.475691218

     Number and degeneracy of irreps per q-point
       N         xq(1)         xq(2)         xq(3)   N irreps
       1   0.000000000   0.000000000   0.000000000      66
     No degeneracy
       2   0.000000000   0.000000000   0.475691218      66
     No degeneracy
Eigenvectors exchange needed   23   54
       3   0.000000000   0.322651085   0.000000000      65
        1   1   1   1   1   1   1   1   1   1   1   1   1   1   1   1   1   1
   1   1   1   1   2   1   1   1   1   1   1   1   1   1   1   1   1   1
   1   1   1   1   1   1   1   1   1   1   1   1   1   1   1   1   1   1
   1   1   1   1   1   1   1   1   1   1   1
       4   0.000000000   0.322651085   0.475691218      66
     No degeneracy
       5   0.333333333   0.000000000   0.000000000      66
     No degeneracy
       6   0.333333333   0.000000000   0.475691218      66
     No degeneracy
       7   0.333333333   0.322651085   0.000000000      66
     No degeneracy
       8   0.333333333   0.322651085   0.475691218      66
     No degeneracy

     Saving dvscf to file. Distribute only q points, not irreducible representations.

     Calculation of q =    0.0000000   0.0000000   0.0000000

                                                                                

     bravais-lattice index     =            8
     lattice parameter (alat)  =      12.4329  a.u.
     unit-cell volume          =    1391.2960 (a.u.)^3
     number of atoms/cell      =           22
     number of atomic types    =            3
     kinetic-energy cut-off    =     100.0000  Ry
     charge density cut-off    =     800.0000  Ry
     convergence threshold     =      1.0E-14
     beta                      =       0.7000
     number of iterations used =            4
     Exchange-correlation= PBESOL
                           (   1   4  10   8   0   0   0)


     celldm(1)=   12.43293  celldm(2)=    1.03311  celldm(3)=    0.70073
     celldm(4)=    0.00000  celldm(5)=    0.00000  celldm(6)=    0.00000

     crystal axes: (cart. coord. in units of alat)
               a(1) = (  1.0000  0.0000  0.0000 )  
               a(2) = (  0.0000  1.0331  0.0000 )  
               a(3) = (  0.0000  0.0000  0.7007 )  

     reciprocal axes: (cart. coord. in units 2 pi/alat)
               b(1) = (  1.0000  0.0000  0.0000 )  
               b(2) = (  0.0000  0.9680  0.0000 )  
               b(3) = (  0.0000  0.0000  1.4271 )  


     Atoms inside the unit cell: 

     Cartesian axes

     site n.  atom      mass           positions (alat units)
        1  Ba    137.3270   tau(    1) = (    0.50000    0.51655    0.35037  )
        2  Ba    137.3270   tau(    2) = (    0.00000    0.00000    0.70073  )
        3  B      10.8110   tau(    3) = (    0.60669    0.24469   -0.00000  )
        4  B      10.8110   tau(    4) = (    0.39331    0.78841   -0.00000  )
        5  B      10.8110   tau(    5) = (    0.10669    0.27186    0.35037  )
        6  B      10.8110   tau(    6) = (    0.89331    0.76125    0.35037  )
        7  H       1.0079   tau(    7) = (    0.42895    0.30269   -0.00001  )
        8  H       1.0079   tau(    8) = (    0.57105    0.73042   -0.00001  )
        9  H       1.0079   tau(    9) = (    0.92895    0.21386    0.35038  )
       10  H       1.0079   tau(   10) = (    0.07105    0.81924    0.35038  )
       11  H       1.0079   tau(   11) = (    0.72265    0.39306    0.00001  )
       12  H       1.0079   tau(   12) = (    0.27735    0.64005    0.00001  )
       13  H       1.0079   tau(   13) = (    0.22265    0.12349    0.35035  )
       14  H       1.0079   tau(   14) = (    0.77735    0.90961    0.35035  )
       15  H       1.0079   tau(   15) = (    0.63469    0.14323    0.54655  )
       16  H       1.0079   tau(   16) = (    0.36531    0.88988    0.54655  )
       17  H       1.0079   tau(   17) = (    0.13469    0.37332    0.50456  )
       18  H       1.0079   tau(   18) = (    0.86531    0.65979    0.50456  )
       19  H       1.0079   tau(   19) = (    0.36533    0.88987    0.15419  )
       20  H       1.0079   tau(   20) = (    0.63467    0.14324    0.15419  )
       21  H       1.0079   tau(   21) = (    0.86533    0.65979    0.19618  )
       22  H       1.0079   tau(   22) = (    0.13467    0.37332    0.19618  )

     Computing dynamical matrix for 
                    q = (   0.0000000   0.0000000   0.0000000 )

      5 Sym.Ops. (with q -> -q+G )


     G cutoff = 3132.3994  (  22153 G-vectors)     FFT grid: (120,120, 80)
     G cutoff = 1566.1997  (   7833 G-vectors)  smooth grid: ( 80, 90, 60)
     number of k points=    27

     PseudoPot. # 1 for B  read from file:
     /home/mehlhorn/pseudos/b_pbesol_v1.4.uspp.F.UPF
     MD5 check sum: 369b69bef2c3aeed4453bd8b804fd6a8
     Pseudo is Ultrasoft + core correction, Zval =  3.0
     Generated by new atomic code, or converted to UPF format
     Using radial grid of  781 points,  4 beta functions with: 
                l(1) =   0
                l(2) =   0
                l(3) =   1
                l(4) =   1
     Q(r) pseudized with  8 coefficients,  rinner =    1.100   1.100   1.100


     PseudoPot. # 2 for Ba read from file:
     /home/mehlhorn/pseudos/Ba.nc.z_10.oncvpsp4.dojo.v4-sp.upf
     MD5 check sum: c10ed334bb677c0554edec7181ce9143
     Pseudo is Norm-conserving + core correction, Zval = 10.0
     Generated using ONCVPSP code by D. R. Hamann
     Using radial grid of 1938 points,  8 beta functions with: 
                l(1) =   0
                l(2) =   0
                l(3) =   1
                l(4) =   1
                l(5) =   2
                l(6) =   2
                l(7) =   3
                l(8) =   3

     PseudoPot. # 3 for H  read from file:
     /home/mehlhorn/pseudos/H_ONCV_PBEsol-1.0.upf
     MD5 check sum: 398ef8f67c0a7342c05c87c5e19ea467
     Pseudo is Norm-conserving, Zval =  1.0
     Generated using ONCVPSP code by D. R. Hamann
     Using radial grid of 1180 points,  2 beta functions with: 
                l(1) =   0
                l(2) =   0

     Mode symmetry, D_2  (222)  point group:


     Electric field:
     Dielectric constant
     Born effective charges in two ways 


     Atomic displacements:
     There are   66 irreducible representations

     Representation     1      1 modes -  To be done

     Representation     2      1 modes -  To be done

     Representation     3      1 modes -  To be done

     Representation     4      1 modes -  To be done

     Representation     5      1 modes -  To be done

     Representation     6      1 modes -  To be done

     Representation     7      1 modes -  To be done

     Representation     8      1 modes -  To be done

     Representation     9      1 modes -  To be done

     Representation    10      1 modes -  To be done

     Representation    11      1 modes -  To be done

     Representation    12      1 modes -  To be done

     Representation    13      1 modes -  To be done

     Representation    14      1 modes -  To be done

     Representation    15      1 modes -  To be done

     Representation    16      1 modes -  To be done

     Representation    17      1 modes -  To be done

     Representation    18      1 modes -  To be done

     Representation    19      1 modes -  To be done

     Representation    20      1 modes -  To be done

     Representation    21      1 modes -  To be done

     Representation    22      1 modes -  To be done

     Representation    23      1 modes -  To be done

     Representation    24      1 modes -  To be done

     Representation    25      1 modes -  To be done

     Representation    26      1 modes -  To be done

     Representation    27      1 modes -  To be done

     Representation    28      1 modes -  To be done

     Representation    29      1 modes -  To be done

     Representation    30      1 modes -  To be done

     Representation    31      1 modes -  To be done

     Representation    32      1 modes -  To be done

     Representation    33      1 modes -  To be done

     Representation    34      1 modes -  To be done

     Representation    35      1 modes -  To be done

     Representation    36      1 modes -  To be done

     Representation    37      1 modes -  To be done

     Representation    38      1 modes -  To be done

     Representation    39      1 modes -  To be done

     Representation    40      1 modes -  To be done

     Representation    41      1 modes -  To be done

     Representation    42      1 modes -  To be done

     Representation    43      1 modes -  To be done

     Representation    44      1 modes -  To be done

     Representation    45      1 modes -  To be done

     Representation    46      1 modes -  To be done

     Representation    47      1 modes -  To be done

     Representation    48      1 modes -  To be done

     Representation    49      1 modes -  To be done

     Representation    50      1 modes -  To be done

     Representation    51      1 modes -  To be done

     Representation    52      1 modes -  To be done

     Representation    53      1 modes -  To be done

     Representation    54      1 modes -  To be done

     Representation    55      1 modes -  To be done

     Representation    56      1 modes -  To be done

     Representation    57      1 modes -  To be done

     Representation    58      1 modes -  To be done

     Representation    59      1 modes -  To be done

     Representation    60      1 modes -  To be done

     Representation    61      1 modes -  To be done

     Representation    62      1 modes -  To be done

     Representation    63      1 modes -  To be done

     Representation    64      1 modes -  To be done

     Representation    65      1 modes -  To be done

     Representation    66      1 modes -  To be done



     Alpha used in Ewald sum =   2.8000
     PHONON       :   3m 4.68s CPU   3m 9.01s WALL


     Electric Fields Calculation

      iter #   1 total cpu time :   765.9 secs   av.it.:   7.6
      thresh= 1.000E-02 alpha_mix =  0.700 |ddv_scf|^2 =  5.806E-09

      iter #   2 total cpu time :  1024.4 secs   av.it.:  16.9
      thresh= 7.620E-06 alpha_mix =  0.700 |ddv_scf|^2 =  9.477E-10

      iter #   3 total cpu time :  1272.9 secs   av.it.:  16.0
      thresh= 3.078E-06 alpha_mix =  0.700 |ddv_scf|^2 =  7.218E-11

      iter #   4 total cpu time :  1512.8 secs   av.it.:  15.7
      thresh= 8.496E-07 alpha_mix =  0.700 |ddv_scf|^2 =  9.609E-12

      iter #   5 total cpu time :  1750.4 secs   av.it.:  15.6
      thresh= 3.100E-07 alpha_mix =  0.700 |ddv_scf|^2 =  9.337E-13

      iter #   6 total cpu time :  1989.5 secs   av.it.:  15.7
      thresh= 9.663E-08 alpha_mix =  0.700 |ddv_scf|^2 =  2.339E-14

      iter #   7 total cpu time :  2230.0 secs   av.it.:  16.0
      thresh= 1.529E-08 alpha_mix =  0.700 |ddv_scf|^2 =  3.250E-15

     End of electric fields calculation

          Dielectric constant in cartesian axis 

          (       3.184141278       0.000000000       0.000000000 )
          (       0.000000000       3.245889972       0.000000000 )
          (       0.000000000       0.000000000       3.371124713 )

          Effective charges (d Force / dE) in cartesian axis without acoustic sum rule applied (asr)

           atom    1  Ba    Mean Z*:        2.66497
      Ex  (        2.51185       -0.04062        0.00000 )
      Ey  (        0.28806        2.52948        0.00000 )
      Ez  (        0.00000        0.00000        2.95358 )
           atom    2  Ba    Mean Z*:        2.66497
      Ex  (        2.51185        0.04062        0.00000 )
      Ey  (       -0.28806        2.52948        0.00000 )
      Ez  (        0.00000        0.00000        2.95358 )
           atom    3  B     Mean Z*:       -0.13392
      Ex  (       -0.15023        0.03264       -0.00002 )
      Ey  (        0.17484       -0.04867        0.00005 )
      Ez  (        0.00001        0.00003       -0.20286 )
           atom    4  B     Mean Z*:       -0.13392
      Ex  (       -0.15023        0.03264        0.00002 )
      Ey  (        0.17484       -0.04867       -0.00005 )
      Ez  (       -0.00001       -0.00003       -0.20286 )
           atom    5  B     Mean Z*:       -0.13392
      Ex  (       -0.15023       -0.03264        0.00002 )
      Ey  (       -0.17484       -0.04867        0.00005 )
      Ez  (       -0.00001        0.00003       -0.20286 )
           atom    6  B     Mean Z*:       -0.13392
      Ex  (       -0.15023       -0.03264       -0.00002 )
      Ey  (       -0.17484       -0.04867       -0.00005 )
      Ez  (        0.00001       -0.00003       -0.20286 )
           atom    7  H     Mean Z*:       -0.30803
      Ex  (       -0.42429        0.13357       -0.00001 )
      Ey  (        0.14122       -0.25349        0.00001 )
      Ez  (       -0.00002        0.00001       -0.24631 )
           atom    8  H     Mean Z*:       -0.30803
      Ex  (       -0.42429        0.13357        0.00001 )
      Ey  (        0.14122       -0.25349       -0.00001 )
      Ez  (        0.00002       -0.00001       -0.24631 )
           atom    9  H     Mean Z*:       -0.30803
      Ex  (       -0.42429       -0.13357        0.00001 )
      Ey  (       -0.14122       -0.25349        0.00001 )
      Ez  (        0.00002        0.00001       -0.24631 )
           atom   10  H     Mean Z*:       -0.30803
      Ex  (       -0.42429       -0.13357       -0.00001 )
      Ey  (       -0.14122       -0.25349       -0.00001 )
      Ez  (       -0.00002       -0.00001       -0.24631 )
           atom   11  H     Mean Z*:       -0.31604
      Ex  (       -0.27633       -0.04521        0.00001 )
      Ey  (       -0.11313       -0.42803       -0.00004 )
      Ez  (        0.00000       -0.00003       -0.24377 )
           atom   12  H     Mean Z*:       -0.31604
      Ex  (       -0.27633       -0.04521       -0.00001 )
      Ey  (       -0.11313       -0.42803        0.00004 )
      Ez  (       -0.00000        0.00003       -0.24377 )
           atom   13  H     Mean Z*:       -0.31604
      Ex  (       -0.27633        0.04521       -0.00001 )
      Ey  (        0.11313       -0.42803       -0.00004 )
      Ez  (       -0.00000       -0.00003       -0.24377 )
           atom   14  H     Mean Z*:       -0.31604
      Ex  (       -0.27633        0.04521        0.00001 )
      Ey  (        0.11313       -0.42803        0.00004 )
      Ez  (        0.00000        0.00003       -0.24377 )
           atom   15  H     Mean Z*:       -0.28705
      Ex  (       -0.20271        0.14466        0.05786 )
      Ey  (        0.09560       -0.26674       -0.09142 )
      Ez  (        0.01827       -0.11005       -0.39170 )
           atom   16  H     Mean Z*:       -0.28705
      Ex  (       -0.20271        0.14466       -0.05786 )
      Ey  (        0.09560       -0.26674        0.09142 )
      Ez  (       -0.01827        0.11005       -0.39170 )
           atom   17  H     Mean Z*:       -0.28705
      Ex  (       -0.20271       -0.14466       -0.05786 )
      Ey  (       -0.09560       -0.26674       -0.09142 )
      Ez  (       -0.01827       -0.11005       -0.39170 )
           atom   18  H     Mean Z*:       -0.28705
      Ex  (       -0.20271       -0.14466        0.05786 )
      Ey  (       -0.09560       -0.26674        0.09142 )
      Ez  (        0.01827        0.11005       -0.39170 )
           atom   19  H     Mean Z*:       -0.28706
      Ex  (       -0.20267        0.14463        0.05782 )
      Ey  (        0.09558       -0.26675       -0.09143 )
      Ez  (        0.01824       -0.11004       -0.39176 )
           atom   20  H     Mean Z*:       -0.28706
      Ex  (       -0.20267        0.14463       -0.05782 )
      Ey  (        0.09558       -0.26675        0.09143 )
      Ez  (       -0.01824        0.11004       -0.39176 )
           atom   21  H     Mean Z*:       -0.28706
      Ex  (       -0.20267       -0.14463       -0.05782 )
      Ey  (       -0.09558       -0.26675       -0.09143 )
      Ez  (       -0.01824       -0.11004       -0.39176 )
           atom   22  H     Mean Z*:       -0.28706
      Ex  (       -0.20267       -0.14463        0.05782 )
      Ey  (       -0.09558       -0.26675        0.09143 )
      Ez  (        0.01824        0.11004       -0.39176 )

          Effective charges Sum: Mean:        0.00152
             -0.00122        0.00000       -0.00000
              0.00000        0.00424        0.00000
              0.00000        0.00000        0.00153

          Effective charges (d Force / dE) in cartesian axis with asr applied: 
           atom    1  Ba    Mean Z*:        2.66490
      E*x (        2.51190       -0.04062       -0.00000 )
      E*y (        0.28806        2.52929        0.00000 )
      E*z (        0.00000        0.00000        2.95351 )
           atom    2  Ba    Mean Z*:        2.66490
      E*x (        2.51190        0.04062       -0.00000 )
      E*y (       -0.28806        2.52929       -0.00000 )
      E*z (        0.00000        0.00000        2.95351 )
           atom    3  B     Mean Z*:       -0.13399
      E*x (       -0.15018        0.03264       -0.00002 )
      E*y (        0.17484       -0.04886        0.00005 )
      E*z (        0.00001        0.00003       -0.20293 )
           atom    4  B     Mean Z*:       -0.13399
      E*x (       -0.15018        0.03264        0.00002 )
      E*y (        0.17484       -0.04886       -0.00005 )
      E*z (       -0.00001       -0.00003       -0.20293 )
           atom    5  B     Mean Z*:       -0.13399
      E*x (       -0.15018       -0.03264        0.00002 )
      E*y (       -0.17484       -0.04886        0.00005 )
      E*z (       -0.00001        0.00003       -0.20293 )
           atom    6  B     Mean Z*:       -0.13399
      E*x (       -0.15018       -0.03264       -0.00002 )
      E*y (       -0.17484       -0.04886       -0.00005 )
      E*z (        0.00001       -0.00003       -0.20293 )
           atom    7  H     Mean Z*:       -0.30810
      E*x (       -0.42423        0.13357       -0.00001 )
      E*y (        0.14122       -0.25368        0.00001 )
      E*z (       -0.00002        0.00001       -0.24638 )
           atom    8  H     Mean Z*:       -0.30810
      E*x (       -0.42423        0.13357        0.00001 )
      E*y (        0.14122       -0.25368       -0.00001 )
      E*z (        0.00002       -0.00001       -0.24638 )
           atom    9  H     Mean Z*:       -0.30810
      E*x (       -0.42423       -0.13357        0.00001 )
      E*y (       -0.14122       -0.25368        0.00001 )
      E*z (        0.00002        0.00001       -0.24638 )
           atom   10  H     Mean Z*:       -0.30810
      E*x (       -0.42423       -0.13357       -0.00001 )
      E*y (       -0.14122       -0.25368       -0.00001 )
      E*z (       -0.00002       -0.00001       -0.24638 )
           atom   11  H     Mean Z*:       -0.31611
      E*x (       -0.27627       -0.04521        0.00001 )
      E*y (       -0.11313       -0.42823       -0.00004 )
      E*z (        0.00000       -0.00003       -0.24384 )
           atom   12  H     Mean Z*:       -0.31611
      E*x (       -0.27627       -0.04521       -0.00001 )
      E*y (       -0.11313       -0.42823        0.00004 )
      E*z (       -0.00000        0.00003       -0.24384 )
           atom   13  H     Mean Z*:       -0.31611
      E*x (       -0.27627        0.04521       -0.00001 )
      E*y (        0.11313       -0.42823       -0.00004 )
      E*z (       -0.00000       -0.00003       -0.24384 )
           atom   14  H     Mean Z*:       -0.31611
      E*x (       -0.27627        0.04521        0.00001 )
      E*y (        0.11313       -0.42823        0.00004 )
      E*z (        0.00000        0.00003       -0.24384 )
           atom   15  H     Mean Z*:       -0.28712
      E*x (       -0.20265        0.14466        0.05786 )
      E*y (        0.09560       -0.26694       -0.09142 )
      E*z (        0.01827       -0.11005       -0.39177 )
           atom   16  H     Mean Z*:       -0.28712
      E*x (       -0.20265        0.14466       -0.05786 )
      E*y (        0.09560       -0.26694        0.09142 )
      E*z (       -0.01827        0.11005       -0.39177 )
           atom   17  H     Mean Z*:       -0.28712
      E*x (       -0.20265       -0.14466       -0.05786 )
      E*y (       -0.09560       -0.26694       -0.09142 )
      E*z (       -0.01827       -0.11005       -0.39177 )
           atom   18  H     Mean Z*:       -0.28712
      E*x (       -0.20265       -0.14466        0.05786 )
      E*y (       -0.09560       -0.26694        0.09142 )
      E*z (        0.01827        0.11005       -0.39177 )
           atom   19  H     Mean Z*:       -0.28713
      E*x (       -0.20261        0.14463        0.05782 )
      E*y (        0.09558       -0.26694       -0.09143 )
      E*z (        0.01824       -0.11004       -0.39183 )
           atom   20  H     Mean Z*:       -0.28713
      E*x (       -0.20261        0.14463       -0.05782 )
      E*y (        0.09558       -0.26694        0.09143 )
      E*z (       -0.01824        0.11004       -0.39183 )
           atom   21  H     Mean Z*:       -0.28713
      E*x (       -0.20261       -0.14463       -0.05782 )
      E*y (       -0.09558       -0.26694       -0.09143 )
      E*z (       -0.01824       -0.11004       -0.39183 )
           atom   22  H     Mean Z*:       -0.28713
      E*x (       -0.20261       -0.14463        0.05782 )
      E*y (       -0.09558       -0.26694        0.09143 )
      E*z (        0.01824        0.11004       -0.39183 )


     Representation #   1 mode #   1

     Self-consistent Calculation

      iter #   1 total cpu time :  4587.7 secs   av.it.:   3.0
      thresh= 1.000E-02 alpha_mix =  0.700 |ddv_scf|^2 =  1.855E-09

      iter #   2 total cpu time :  4668.2 secs   av.it.:  15.6
      thresh= 4.307E-06 alpha_mix =  0.700 |ddv_scf|^2 =  4.141E-10

      iter #   3 total cpu time :  4747.1 secs   av.it.:  15.0
      thresh= 2.035E-06 alpha_mix =  0.700 |ddv_scf|^2 =  2.667E-12

      iter #   4 total cpu time :  4827.2 secs   av.it.:  15.5
      thresh= 1.633E-07 alpha_mix =  0.700 |ddv_scf|^2 =  4.893E-14

      iter #   5 total cpu time :  4908.5 secs   av.it.:  15.8
      thresh= 2.212E-08 alpha_mix =  0.700 |ddv_scf|^2 =  1.918E-15

     End of self-consistent calculation

     Convergence has been achieved 


     Representation #   2 mode #   2

     Self-consistent Calculation

      iter #   1 total cpu time :  4967.8 secs   av.it.:   3.0
      thresh= 1.000E-02 alpha_mix =  0.700 |ddv_scf|^2 =  1.455E-09

      iter #   2 total cpu time :  5049.3 secs   av.it.:  15.9
      thresh= 3.814E-06 alpha_mix =  0.700 |ddv_scf|^2 =  3.775E-10

      iter #   3 total cpu time :  5129.2 secs   av.it.:  15.2
      thresh= 1.943E-06 alpha_mix =  0.700 |ddv_scf|^2 =  3.120E-12

      iter #   4 total cpu time :  5210.6 secs   av.it.:  15.9
      thresh= 1.766E-07 alpha_mix =  0.700 |ddv_scf|^2 =  1.182E-13

      iter #   5 total cpu time :  5291.5 secs   av.it.:  15.7
      thresh= 3.438E-08 alpha_mix =  0.700 |ddv_scf|^2 =  5.189E-15

     End of self-consistent calculation

     Convergence has been achieved 


     Representation #   3 mode #   3

     Self-consistent Calculation

      iter #   1 total cpu time :  5351.1 secs   av.it.:   3.0
      thresh= 1.000E-02 alpha_mix =  0.700 |ddv_scf|^2 =  5.967E-10

      iter #   2 total cpu time :  5433.0 secs   av.it.:  15.9
      thresh= 2.443E-06 alpha_mix =  0.700 |ddv_scf|^2 =  5.041E-11

      iter #   3 total cpu time :  5515.1 secs   av.it.:  15.9
      thresh= 7.100E-07 alpha_mix =  0.700 |ddv_scf|^2 =  6.116E-12

      iter #   4 total cpu time :  5595.5 secs   av.it.:  15.7
      thresh= 2.473E-07 alpha_mix =  0.700 |ddv_scf|^2 =  9.735E-14

      iter #   5 total cpu time :  5674.9 secs   av.it.:  15.6
      thresh= 3.120E-08 alpha_mix =  0.700 |ddv_scf|^2 =  3.277E-15

     End of self-consistent calculation

     Convergence has been achieved 


     Representation #   4 mode #   4

     Self-consistent Calculation

      iter #   1 total cpu time :  5740.4 secs   av.it.:   5.0
      thresh= 1.000E-02 alpha_mix =  0.700 |ddv_scf|^2 =  1.214E-08

      iter #   2 total cpu time :  5821.6 secs   av.it.:  15.8
      thresh= 1.102E-05 alpha_mix =  0.700 |ddv_scf|^2 =  2.626E-09

      iter #   3 total cpu time :  5899.2 secs   av.it.:  15.0
      thresh= 5.124E-06 alpha_mix =  0.700 |ddv_scf|^2 =  2.045E-11

      iter #   4 total cpu time :  5979.3 secs   av.it.:  15.6
      thresh= 4.523E-07 alpha_mix =  0.700 |ddv_scf|^2 =  1.394E-12

      iter #   5 total cpu time :  6060.4 secs   av.it.:  15.6
      thresh= 1.181E-07 alpha_mix =  0.700 |ddv_scf|^2 =  1.883E-14

      iter #   6 total cpu time :  6141.9 secs   av.it.:  15.8
      thresh= 1.372E-08 alpha_mix =  0.700 |ddv_scf|^2 =  2.085E-16

     End of self-consistent calculation

     Convergence has been achieved 


     Representation #   5 mode #   5

     Self-consistent Calculation

      iter #   1 total cpu time :  6232.1 secs   av.it.:   6.5
      thresh= 1.000E-02 alpha_mix =  0.700 |ddv_scf|^2 =  6.161E-08

      iter #   2 total cpu time :  6309.9 secs   av.it.:  15.3
      thresh= 2.482E-05 alpha_mix =  0.700 |ddv_scf|^2 =  1.741E-08

      iter #   3 total cpu time :  6386.0 secs   av.it.:  14.6
      thresh= 1.320E-05 alpha_mix =  0.700 |ddv_scf|^2 =  3.282E-11

      iter #   4 total cpu time :  6464.0 secs   av.it.:  15.2
      thresh= 5.729E-07 alpha_mix =  0.700 |ddv_scf|^2 =  1.179E-12

      iter #   5 total cpu time :  6541.1 secs   av.it.:  14.7
      thresh= 1.086E-07 alpha_mix =  0.700 |ddv_scf|^2 =  1.101E-14

      iter #   6 total cpu time :  6618.8 secs   av.it.:  14.7
      thresh= 1.049E-08 alpha_mix =  0.700 |ddv_scf|^2 =  2.120E-16

     End of self-consistent calculation

     Convergence has been achieved 


     Representation #   6 mode #   6

     Self-consistent Calculation

      iter #   1 total cpu time :  6684.7 secs   av.it.:   3.1
      thresh= 1.000E-02 alpha_mix =  0.700 |ddv_scf|^2 =  1.719E-09

      iter #   2 total cpu time :  6767.2 secs   av.it.:  15.9
      thresh= 4.146E-06 alpha_mix =  0.700 |ddv_scf|^2 =  4.636E-10

      iter #   3 total cpu time :  6848.1 secs   av.it.:  15.3
      thresh= 2.153E-06 alpha_mix =  0.700 |ddv_scf|^2 =  4.269E-12

      iter #   4 total cpu time :  6928.4 secs   av.it.:  15.5
      thresh= 2.066E-07 alpha_mix =  0.700 |ddv_scf|^2 =  2.155E-13

      iter #   5 total cpu time :  7007.6 secs   av.it.:  15.4
      thresh= 4.642E-08 alpha_mix =  0.700 |ddv_scf|^2 =  4.690E-15

     End of self-consistent calculation

     Convergence has been achieved 


     Representation #   7 mode #   7

     Self-consistent Calculation

      iter #   1 total cpu time :  7066.0 secs   av.it.:   3.0
      thresh= 1.000E-02 alpha_mix =  0.700 |ddv_scf|^2 =  1.400E-09

      iter #   2 total cpu time :  7141.1 secs   av.it.:  15.4
      thresh= 3.742E-06 alpha_mix =  0.700 |ddv_scf|^2 =  1.287E-10

      iter #   3 total cpu time :  7219.9 secs   av.it.:  15.2
      thresh= 1.135E-06 alpha_mix =  0.700 |ddv_scf|^2 =  1.219E-12

      iter #   4 total cpu time :  7301.3 secs   av.it.:  15.8
      thresh= 1.104E-07 alpha_mix =  0.700 |ddv_scf|^2 =  7.614E-14

      iter #   5 total cpu time :  7382.7 secs   av.it.:  15.9
      thresh= 2.759E-08 alpha_mix =  0.700 |ddv_scf|^2 =  5.907E-15

     End of self-consistent calculation

     Convergence has been achieved 


     Representation #   8 mode #   8

     Self-consistent Calculation

      iter #   1 total cpu time :  7442.1 secs   av.it.:   3.0
      thresh= 1.000E-02 alpha_mix =  0.700 |ddv_scf|^2 =  8.970E-10

      iter #   2 total cpu time :  7523.6 secs   av.it.:  15.5
      thresh= 2.995E-06 alpha_mix =  0.700 |ddv_scf|^2 =  7.632E-11

      iter #   3 total cpu time :  7605.2 secs   av.it.:  15.7
      thresh= 8.736E-07 alpha_mix =  0.700 |ddv_scf|^2 =  2.162E-12

      iter #   4 total cpu time :  7686.7 secs   av.it.:  15.9
      thresh= 1.470E-07 alpha_mix =  0.700 |ddv_scf|^2 =  1.752E-13

      iter #   5 total cpu time :  7767.4 secs   av.it.:  15.7
      thresh= 4.186E-08 alpha_mix =  0.700 |ddv_scf|^2 =  5.766E-15

     End of self-consistent calculation

     Convergence has been achieved 


     Representation #   9 mode #   9

     Self-consistent Calculation

      iter #   1 total cpu time :  7833.0 secs   av.it.:   4.9
      thresh= 1.000E-02 alpha_mix =  0.700 |ddv_scf|^2 =  8.059E-09

      iter #   2 total cpu time :  7916.2 secs   av.it.:  16.0
      thresh= 8.977E-06 alpha_mix =  0.700 |ddv_scf|^2 =  1.239E-09

      iter #   3 total cpu time :  7996.4 secs   av.it.:  15.4
      thresh= 3.520E-06 alpha_mix =  0.700 |ddv_scf|^2 =  2.324E-11

      iter #   4 total cpu time :  8076.9 secs   av.it.:  15.8
      thresh= 4.821E-07 alpha_mix =  0.700 |ddv_scf|^2 =  1.628E-12

      iter #   5 total cpu time :  8158.5 secs   av.it.:  15.7
      thresh= 1.276E-07 alpha_mix =  0.700 |ddv_scf|^2 =  3.172E-14

      iter #   6 total cpu time :  8239.8 secs   av.it.:  15.8
      thresh= 1.781E-08 alpha_mix =  0.700 |ddv_scf|^2 =  2.319E-16

     End of self-consistent calculation

     Convergence has been achieved 


     Representation #  10 mode #  10

     Self-consistent Calculation

      iter #   1 total cpu time :  8315.7 secs   av.it.:   3.0
      thresh= 1.000E-02 alpha_mix =  0.700 |ddv_scf|^2 =  1.087E-09

      iter #   2 total cpu time :  8397.6 secs   av.it.:  15.9
      thresh= 3.297E-06 alpha_mix =  0.700 |ddv_scf|^2 =  1.111E-10

      iter #   3 total cpu time :  8479.8 secs   av.it.:  15.9
      thresh= 1.054E-06 alpha_mix =  0.700 |ddv_scf|^2 =  4.052E-12

      iter #   4 total cpu time :  8560.2 secs   av.it.:  15.9
      thresh= 2.013E-07 alpha_mix =  0.700 |ddv_scf|^2 =  1.689E-13

      iter #   5 total cpu time :  8641.4 secs   av.it.:  15.8
      thresh= 4.110E-08 alpha_mix =  0.700 |ddv_scf|^2 =  6.345E-15

     End of self-consistent calculation

     Convergence has been achieved 


     Representation #  11 mode #  11

     Self-consistent Calculation

      iter #   1 total cpu time :  8701.6 secs   av.it.:   3.0
      thresh= 1.000E-02 alpha_mix =  0.700 |ddv_scf|^2 =  9.073E-10

      iter #   2 total cpu time :  8783.5 secs   av.it.:  15.9
      thresh= 3.012E-06 alpha_mix =  0.700 |ddv_scf|^2 =  1.654E-10

      iter #   3 total cpu time :  8863.8 secs   av.it.:  15.5
      thresh= 1.286E-06 alpha_mix =  0.700 |ddv_scf|^2 =  6.408E-12

      iter #   4 total cpu time :  8944.7 secs   av.it.:  15.7
      thresh= 2.531E-07 alpha_mix =  0.700 |ddv_scf|^2 =  1.051E-13

      iter #   5 total cpu time :  9025.6 secs   av.it.:  15.3
      thresh= 3.242E-08 alpha_mix =  0.700 |ddv_scf|^2 =  4.135E-15

     End of self-consistent calculation

     Convergence has been achieved 


     Representation #  12 mode #  12

     Self-consistent Calculation

      iter #   1 total cpu time :  9085.5 secs   av.it.:   3.0
      thresh= 1.000E-02 alpha_mix =  0.700 |ddv_scf|^2 =  8.195E-10

      iter #   2 total cpu time :  9169.0 secs   av.it.:  15.9
      thresh= 2.863E-06 alpha_mix =  0.700 |ddv_scf|^2 =  1.191E-10

      iter #   3 total cpu time :  9251.7 secs   av.it.:  15.9
      thresh= 1.091E-06 alpha_mix =  0.700 |ddv_scf|^2 =  4.275E-12

      iter #   4 total cpu time :  9334.3 secs   av.it.:  15.9
      thresh= 2.068E-07 alpha_mix =  0.700 |ddv_scf|^2 =  2.815E-13

      iter #   5 total cpu time :  9414.4 secs   av.it.:  15.4
      thresh= 5.305E-08 alpha_mix =  0.700 |ddv_scf|^2 =  5.404E-15

     End of self-consistent calculation

     Convergence has been achieved 


     Representation #  13 mode #  13

     Self-consistent Calculation

      iter #   1 total cpu time :  9475.0 secs   av.it.:   3.5
      thresh= 1.000E-02 alpha_mix =  0.700 |ddv_scf|^2 =  1.780E-09

      iter #   2 total cpu time :  9556.8 secs   av.it.:  15.8
      thresh= 4.219E-06 alpha_mix =  0.700 |ddv_scf|^2 =  5.622E-10

      iter #   3 total cpu time :  9636.4 secs   av.it.:  15.0
      thresh= 2.371E-06 alpha_mix =  0.700 |ddv_scf|^2 =  1.756E-12

      iter #   4 total cpu time :  9717.3 secs   av.it.:  15.7
      thresh= 1.325E-07 alpha_mix =  0.700 |ddv_scf|^2 =  5.439E-14

      iter #   5 total cpu time :  9797.8 secs   av.it.:  15.6
      thresh= 2.332E-08 alpha_mix =  0.700 |ddv_scf|^2 =  2.504E-15

     End of self-consistent calculation

     Convergence has been achieved 


     Representation #  14 mode #  14

     Self-consistent Calculation

      iter #   1 total cpu time :  9862.1 secs   av.it.:   4.1
      thresh= 1.000E-02 alpha_mix =  0.700 |ddv_scf|^2 =  1.044E-08

      iter #   2 total cpu time :  9941.5 secs   av.it.:  15.3
      thresh= 1.022E-05 alpha_mix =  0.700 |ddv_scf|^2 =  1.379E-09

      iter #   3 total cpu time : 10020.9 secs   av.it.:  15.0
      thresh= 3.713E-06 alpha_mix =  0.700 |ddv_scf|^2 =  1.114E-11

      iter #   4 total cpu time : 10102.5 secs   av.it.:  15.8
      thresh= 3.337E-07 alpha_mix =  0.700 |ddv_scf|^2 =  1.570E-12

      iter #   5 total cpu time : 10183.7 secs   av.it.:  15.6
      thresh= 1.253E-07 alpha_mix =  0.700 |ddv_scf|^2 =  7.537E-14

      iter #   6 total cpu time : 10264.0 secs   av.it.:  15.3
      thresh= 2.745E-08 alpha_mix =  0.700 |ddv_scf|^2 =  1.691E-16

     End of self-consistent calculation

     Convergence has been achieved 


     Representation #  15 mode #  15

     Self-consistent Calculation

      iter #   1 total cpu time : 10340.3 secs   av.it.:   3.0
      thresh= 1.000E-02 alpha_mix =  0.700 |ddv_scf|^2 =  1.663E-09

      iter #   2 total cpu time : 10422.2 secs   av.it.:  15.9
      thresh= 4.078E-06 alpha_mix =  0.700 |ddv_scf|^2 =  3.277E-10

      iter #   3 total cpu time : 10501.5 secs   av.it.:  15.5
      thresh= 1.810E-06 alpha_mix =  0.700 |ddv_scf|^2 =  3.655E-12

      iter #   4 total cpu time : 10582.6 secs   av.it.:  15.8
      thresh= 1.912E-07 alpha_mix =  0.700 |ddv_scf|^2 =  1.354E-13

      iter #   5 total cpu time : 10663.9 secs   av.it.:  15.9
      thresh= 3.680E-08 alpha_mix =  0.700 |ddv_scf|^2 =  4.780E-15

     End of self-consistent calculation

     Convergence has been achieved 


     Representation #  16 mode #  16

     Self-consistent Calculation

      iter #   1 total cpu time : 10724.0 secs   av.it.:   3.0
      thresh= 1.000E-02 alpha_mix =  0.700 |ddv_scf|^2 =  1.687E-09

      iter #   2 total cpu time : 10806.2 secs   av.it.:  15.9
      thresh= 4.107E-06 alpha_mix =  0.700 |ddv_scf|^2 =  5.415E-10

      iter #   3 total cpu time : 10885.7 secs   av.it.:  15.0
      thresh= 2.327E-06 alpha_mix =  0.700 |ddv_scf|^2 =  1.765E-12

      iter #   4 total cpu time : 10967.9 secs   av.it.:  16.0
      thresh= 1.328E-07 alpha_mix =  0.700 |ddv_scf|^2 =  4.488E-14

      iter #   5 total cpu time : 11049.1 secs   av.it.:  15.7
      thresh= 2.118E-08 alpha_mix =  0.700 |ddv_scf|^2 =  2.901E-15

     End of self-consistent calculation

     Convergence has been achieved 


     Representation #  17 mode #  17

     Self-consistent Calculation

      iter #   1 total cpu time : 11114.7 secs   av.it.:   5.0
      thresh= 1.000E-02 alpha_mix =  0.700 |ddv_scf|^2 =  1.354E-08

      iter #   2 total cpu time : 11196.6 secs   av.it.:  15.8
      thresh= 1.164E-05 alpha_mix =  0.700 |ddv_scf|^2 =  5.486E-09

      iter #   3 total cpu time : 11274.0 secs   av.it.:  14.9
      thresh= 7.407E-06 alpha_mix =  0.700 |ddv_scf|^2 =  1.079E-10

      iter #   4 total cpu time : 11354.0 secs   av.it.:  15.0
      thresh= 1.039E-06 alpha_mix =  0.700 |ddv_scf|^2 =  7.008E-12

      iter #   5 total cpu time : 11434.3 secs   av.it.:  15.1
      thresh= 2.647E-07 alpha_mix =  0.700 |ddv_scf|^2 =  5.508E-13

      iter #   6 total cpu time : 11513.9 secs   av.it.:  15.0
      thresh= 7.422E-08 alpha_mix =  0.700 |ddv_scf|^2 =  2.096E-14

      iter #   7 total cpu time : 11595.7 secs   av.it.:  15.9
      thresh= 1.448E-08 alpha_mix =  0.700 |ddv_scf|^2 =  3.872E-15

     End of self-consistent calculation

     Convergence has been achieved 


     Representation #  18 mode #  18

     Self-consistent Calculation

      iter #   1 total cpu time : 11672.7 secs   av.it.:   3.1
      thresh= 1.000E-02 alpha_mix =  0.700 |ddv_scf|^2 =  3.941E-09

      iter #   2 total cpu time : 11753.3 secs   av.it.:  15.5
      thresh= 6.278E-06 alpha_mix =  0.700 |ddv_scf|^2 =  2.360E-09

      iter #   3 total cpu time : 11829.4 secs   av.it.:  14.7
      thresh= 4.858E-06 alpha_mix =  0.700 |ddv_scf|^2 =  5.608E-12

      iter #   4 total cpu time : 11910.0 secs   av.it.:  15.6
      thresh= 2.368E-07 alpha_mix =  0.700 |ddv_scf|^2 =  1.201E-12

      iter #   5 total cpu time : 11987.6 secs   av.it.:  14.9
      thresh= 1.096E-07 alpha_mix =  0.700 |ddv_scf|^2 =  7.906E-14

      iter #   6 total cpu time : 12066.9 secs   av.it.:  15.0
      thresh= 2.812E-08 alpha_mix =  0.700 |ddv_scf|^2 =  3.318E-15

     End of self-consistent calculation

     Convergence has been achieved 


     Representation #  19 mode #  19

     Self-consistent Calculation

      iter #   1 total cpu time : 12126.3 secs   av.it.:   3.0
      thresh= 1.000E-02 alpha_mix =  0.700 |ddv_scf|^2 =  1.028E-09

      iter #   2 total cpu time : 12208.9 secs   av.it.:  15.9
      thresh= 3.206E-06 alpha_mix =  0.700 |ddv_scf|^2 =  2.257E-10

      iter #   3 total cpu time : 12290.1 secs   av.it.:  15.6
      thresh= 1.502E-06 alpha_mix =  0.700 |ddv_scf|^2 =  1.230E-11

      iter #   4 total cpu time : 12370.2 secs   av.it.:  15.0
      thresh= 3.508E-07 alpha_mix =  0.700 |ddv_scf|^2 =  5.761E-13

      iter #   5 total cpu time : 12450.5 secs   av.it.:  15.6
      thresh= 7.590E-08 alpha_mix =  0.700 |ddv_scf|^2 =  1.096E-14

      iter #   6 total cpu time : 12531.8 secs   av.it.:  15.9
      thresh= 1.047E-08 alpha_mix =  0.700 |ddv_scf|^2 =  1.804E-15

     End of self-consistent calculation

     Convergence has been achieved 


     Representation #  20 mode #  20

     Self-consistent Calculation

      iter #   1 total cpu time : 12592.8 secs   av.it.:   3.9
      thresh= 1.000E-02 alpha_mix =  0.700 |ddv_scf|^2 =  6.897E-09

      iter #   2 total cpu time : 12673.7 secs   av.it.:  15.3
      thresh= 8.305E-06 alpha_mix =  0.700 |ddv_scf|^2 =  4.563E-09

      iter #   3 total cpu time : 12751.6 secs   av.it.:  14.6
      thresh= 6.755E-06 alpha_mix =  0.700 |ddv_scf|^2 =  1.430E-11

      iter #   4 total cpu time : 12830.9 secs   av.it.:  14.9
      thresh= 3.781E-07 alpha_mix =  0.700 |ddv_scf|^2 =  1.113E-12

      iter #   5 total cpu time : 12911.1 secs   av.it.:  15.1
      thresh= 1.055E-07 alpha_mix =  0.700 |ddv_scf|^2 =  1.080E-13

      iter #   6 total cpu time : 12986.4 secs   av.it.:  14.9
      thresh= 3.286E-08 alpha_mix =  0.700 |ddv_scf|^2 =  7.352E-15

     End of self-consistent calculation

     Convergence has been achieved 


     Representation #  21 mode #  21

     Self-consistent Calculation

      iter #   1 total cpu time : 13046.9 secs   av.it.:   3.0
      thresh= 1.000E-02 alpha_mix =  0.700 |ddv_scf|^2 =  6.466E-09

      iter #   2 total cpu time : 13128.6 secs   av.it.:  15.3
      thresh= 8.041E-06 alpha_mix =  0.700 |ddv_scf|^2 =  4.468E-09

      iter #   3 total cpu time : 13205.5 secs   av.it.:  14.7
      thresh= 6.684E-06 alpha_mix =  0.700 |ddv_scf|^2 =  5.604E-12

      iter #   4 total cpu time : 13287.4 secs   av.it.:  15.9
      thresh= 2.367E-07 alpha_mix =  0.700 |ddv_scf|^2 =  1.234E-12

      iter #   5 total cpu time : 13367.7 secs   av.it.:  15.4
      thresh= 1.111E-07 alpha_mix =  0.700 |ddv_scf|^2 =  7.719E-14

      iter #   6 total cpu time : 13447.5 secs   av.it.:  15.2
      thresh= 2.778E-08 alpha_mix =  0.700 |ddv_scf|^2 =  2.860E-15

     End of self-consistent calculation

     Convergence has been achieved 


     Representation #  22 mode #  22

     Self-consistent Calculation

      iter #   1 total cpu time : 13520.4 secs   av.it.:   6.4
      thresh= 1.000E-02 alpha_mix =  0.700 |ddv_scf|^2 =  3.997E-08

      iter #   2 total cpu time : 13599.4 secs   av.it.:  15.3
      thresh= 1.999E-05 alpha_mix =  0.700 |ddv_scf|^2 =  6.308E-09

      iter #   3 total cpu time : 13676.0 secs   av.it.:  14.8
      thresh= 7.942E-06 alpha_mix =  0.700 |ddv_scf|^2 =  3.060E-11

      iter #   4 total cpu time : 13754.3 secs   av.it.:  14.8
      thresh= 5.532E-07 alpha_mix =  0.700 |ddv_scf|^2 =  2.132E-13

      iter #   5 total cpu time : 13834.0 secs   av.it.:  15.4
      thresh= 4.617E-08 alpha_mix =  0.700 |ddv_scf|^2 =  8.029E-15

     End of self-consistent calculation

     Convergence has been achieved 


     Representation #  23 mode #  23

     Self-consistent Calculation

      iter #   1 total cpu time : 13899.2 secs   av.it.:   3.0
      thresh= 1.000E-02 alpha_mix =  0.700 |ddv_scf|^2 =  4.231E-09

      iter #   2 total cpu time : 13978.7 secs   av.it.:  15.0
      thresh= 6.504E-06 alpha_mix =  0.700 |ddv_scf|^2 =  2.146E-09

      iter #   3 total cpu time : 14055.7 secs   av.it.:  14.6
      thresh= 4.633E-06 alpha_mix =  0.700 |ddv_scf|^2 =  1.965E-11

      iter #   4 total cpu time : 14134.8 secs   av.it.:  15.0
      thresh= 4.432E-07 alpha_mix =  0.700 |ddv_scf|^2 =  1.481E-12

      iter #   5 total cpu time : 14212.9 secs   av.it.:  14.9
      thresh= 1.217E-07 alpha_mix =  0.700 |ddv_scf|^2 =  2.985E-14

      iter #   6 total cpu time : 14290.7 secs   av.it.:  15.6
      thresh= 1.728E-08 alpha_mix =  0.700 |ddv_scf|^2 =  5.530E-15

     End of self-consistent calculation

     Convergence has been achieved 


     Representation #  24 mode #  24

     Self-consistent Calculation

      iter #   1 total cpu time : 14348.8 secs   av.it.:   3.0
      thresh= 1.000E-02 alpha_mix =  0.700 |ddv_scf|^2 =  7.119E-10

      iter #   2 total cpu time : 14429.1 secs   av.it.:  15.7
      thresh= 2.668E-06 alpha_mix =  0.700 |ddv_scf|^2 =  9.690E-11

      iter #   3 total cpu time : 14508.6 secs   av.it.:  15.4
      thresh= 9.844E-07 alpha_mix =  0.700 |ddv_scf|^2 =  1.045E-11

      iter #   4 total cpu time : 14584.6 secs   av.it.:  15.0
      thresh= 3.232E-07 alpha_mix =  0.700 |ddv_scf|^2 =  7.320E-13

      iter #   5 total cpu time : 14662.6 secs   av.it.:  15.0
      thresh= 8.556E-08 alpha_mix =  0.700 |ddv_scf|^2 =  1.296E-14

      iter #   6 total cpu time : 14742.6 secs   av.it.:  15.3
      thresh= 1.139E-08 alpha_mix =  0.700 |ddv_scf|^2 =  1.610E-15

     End of self-consistent calculation

     Convergence has been achieved 


     Representation #  25 mode #  25

     Self-consistent Calculation

      iter #   1 total cpu time : 14803.2 secs   av.it.:   3.1
      thresh= 1.000E-02 alpha_mix =  0.700 |ddv_scf|^2 =  5.292E-09

      iter #   2 total cpu time : 14884.4 secs   av.it.:  15.7
      thresh= 7.275E-06 alpha_mix =  0.700 |ddv_scf|^2 =  3.033E-09

      iter #   3 total cpu time : 14961.0 secs   av.it.:  14.8
      thresh= 5.508E-06 alpha_mix =  0.700 |ddv_scf|^2 =  1.990E-11

      iter #   4 total cpu time : 15040.6 secs   av.it.:  15.0
      thresh= 4.461E-07 alpha_mix =  0.700 |ddv_scf|^2 =  1.287E-12

      iter #   5 total cpu time : 15120.3 secs   av.it.:  15.3
      thresh= 1.134E-07 alpha_mix =  0.700 |ddv_scf|^2 =  7.782E-14

      iter #   6 total cpu time : 15198.8 secs   av.it.:  15.0
      thresh= 2.790E-08 alpha_mix =  0.700 |ddv_scf|^2 =  7.808E-15

     End of self-consistent calculation

     Convergence has been achieved 


     Representation #  26 mode #  26

     Self-consistent Calculation

      iter #   1 total cpu time : 15257.9 secs   av.it.:   3.0
      thresh= 1.000E-02 alpha_mix =  0.700 |ddv_scf|^2 =  4.187E-09

      iter #   2 total cpu time : 15336.3 secs   av.it.:  15.0
      thresh= 6.471E-06 alpha_mix =  0.700 |ddv_scf|^2 =  1.428E-09

      iter #   3 total cpu time : 15412.3 secs   av.it.:  14.6
      thresh= 3.780E-06 alpha_mix =  0.700 |ddv_scf|^2 =  1.587E-11

      iter #   4 total cpu time : 15491.0 secs   av.it.:  15.0
      thresh= 3.983E-07 alpha_mix =  0.700 |ddv_scf|^2 =  1.979E-12

      iter #   5 total cpu time : 15569.6 secs   av.it.:  14.9
      thresh= 1.407E-07 alpha_mix =  0.700 |ddv_scf|^2 =  2.030E-14

      iter #   6 total cpu time : 15650.3 secs   av.it.:  15.4
      thresh= 1.425E-08 alpha_mix =  0.700 |ddv_scf|^2 =  4.350E-15

     End of self-consistent calculation

     Convergence has been achieved 


     Representation #  27 mode #  27

     Self-consistent Calculation

      iter #   1 total cpu time : 15717.3 secs   av.it.:   5.0
      thresh= 1.000E-02 alpha_mix =  0.700 |ddv_scf|^2 =  5.235E-08

      iter #   2 total cpu time : 15796.3 secs   av.it.:  15.0
      thresh= 2.288E-05 alpha_mix =  0.700 |ddv_scf|^2 =  3.406E-08

      iter #   3 total cpu time : 15872.2 secs   av.it.:  14.1
      thresh= 1.845E-05 alpha_mix =  0.700 |ddv_scf|^2 =  1.696E-10

      iter #   4 total cpu time : 15951.7 secs   av.it.:  15.0
      thresh= 1.302E-06 alpha_mix =  0.700 |ddv_scf|^2 =  6.155E-12

      iter #   5 total cpu time : 16031.5 secs   av.it.:  15.0
      thresh= 2.481E-07 alpha_mix =  0.700 |ddv_scf|^2 =  1.288E-13

      iter #   6 total cpu time : 16113.6 secs   av.it.:  15.7
      thresh= 3.588E-08 alpha_mix =  0.700 |ddv_scf|^2 =  1.088E-14

      iter #   7 total cpu time : 16194.3 secs   av.it.:  15.3
      thresh= 1.043E-08 alpha_mix =  0.700 |ddv_scf|^2 =  9.847E-16

     End of self-consistent calculation

     Convergence has been achieved 


     Representation #  28 mode #  28

     Self-consistent Calculation

      iter #   1 total cpu time : 16271.5 secs   av.it.:   3.0
      thresh= 1.000E-02 alpha_mix =  0.700 |ddv_scf|^2 =  9.073E-09

      iter #   2 total cpu time : 16350.0 secs   av.it.:  15.0
      thresh= 9.525E-06 alpha_mix =  0.700 |ddv_scf|^2 =  6.964E-09

      iter #   3 total cpu time : 16424.4 secs   av.it.:  14.0
      thresh= 8.345E-06 alpha_mix =  0.700 |ddv_scf|^2 =  3.878E-12

      iter #   4 total cpu time : 16505.1 secs   av.it.:  15.6
      thresh= 1.969E-07 alpha_mix =  0.700 |ddv_scf|^2 =  8.703E-13

      iter #   5 total cpu time : 16583.7 secs   av.it.:  14.9
      thresh= 9.329E-08 alpha_mix =  0.700 |ddv_scf|^2 =  1.078E-14

      iter #   6 total cpu time : 16662.4 secs   av.it.:  15.0
      thresh= 1.038E-08 alpha_mix =  0.700 |ddv_scf|^2 =  5.325E-16

     End of self-consistent calculation

     Convergence has been achieved 


     Representation #  29 mode #  29

     Self-consistent Calculation

      iter #   1 total cpu time : 16724.1 secs   av.it.:   3.9
      thresh= 1.000E-02 alpha_mix =  0.700 |ddv_scf|^2 =  4.782E-09

      iter #   2 total cpu time : 16805.6 secs   av.it.:  15.6
      thresh= 6.915E-06 alpha_mix =  0.700 |ddv_scf|^2 =  3.015E-09

      iter #   3 total cpu time : 16883.6 secs   av.it.:  14.9
      thresh= 5.491E-06 alpha_mix =  0.700 |ddv_scf|^2 =  3.906E-12

      iter #   4 total cpu time : 16964.3 secs   av.it.:  15.5
      thresh= 1.976E-07 alpha_mix =  0.700 |ddv_scf|^2 =  1.222E-12

      iter #   5 total cpu time : 17041.7 secs   av.it.:  15.0
      thresh= 1.105E-07 alpha_mix =  0.700 |ddv_scf|^2 =  5.343E-14

      iter #   6 total cpu time : 17121.1 secs   av.it.:  15.0
      thresh= 2.312E-08 alpha_mix =  0.700 |ddv_scf|^2 =  4.326E-15

     End of self-consistent calculation

     Convergence has been achieved 


     Representation #  30 mode #  30

     Self-consistent Calculation

      iter #   1 total cpu time : 17187.7 secs   av.it.:   5.0
      thresh= 1.000E-02 alpha_mix =  0.700 |ddv_scf|^2 =  5.047E-08

      iter #   2 total cpu time : 17267.5 secs   av.it.:  15.0
      thresh= 2.247E-05 alpha_mix =  0.700 |ddv_scf|^2 =  3.816E-08

      iter #   3 total cpu time : 17342.8 secs   av.it.:  14.0
      thresh= 1.954E-05 alpha_mix =  0.700 |ddv_scf|^2 =  8.204E-11

      iter #   4 total cpu time : 17421.7 secs   av.it.:  15.0
      thresh= 9.058E-07 alpha_mix =  0.700 |ddv_scf|^2 =  7.532E-12

      iter #   5 total cpu time : 17501.6 secs   av.it.:  15.0
      thresh= 2.744E-07 alpha_mix =  0.700 |ddv_scf|^2 =  4.061E-13

      iter #   6 total cpu time : 17582.4 secs   av.it.:  15.7
      thresh= 6.373E-08 alpha_mix =  0.700 |ddv_scf|^2 =  3.887E-14

      iter #   7 total cpu time : 17663.2 secs   av.it.:  15.3
      thresh= 1.972E-08 alpha_mix =  0.700 |ddv_scf|^2 =  2.269E-15

     End of self-consistent calculation

     Convergence has been achieved 


     Representation #  31 mode #  31

     Self-consistent Calculation

      iter #   1 total cpu time : 17740.1 secs   av.it.:   3.0
      thresh= 1.000E-02 alpha_mix =  0.700 |ddv_scf|^2 =  6.708E-09

      iter #   2 total cpu time : 17818.5 secs   av.it.:  15.0
      thresh= 8.190E-06 alpha_mix =  0.700 |ddv_scf|^2 =  3.553E-09

      iter #   3 total cpu time : 17893.9 secs   av.it.:  14.5
      thresh= 5.960E-06 alpha_mix =  0.700 |ddv_scf|^2 =  1.393E-11

      iter #   4 total cpu time : 17972.6 secs   av.it.:  15.0
      thresh= 3.733E-07 alpha_mix =  0.700 |ddv_scf|^2 =  1.817E-12

      iter #   5 total cpu time : 18048.5 secs   av.it.:  14.6
      thresh= 1.348E-07 alpha_mix =  0.700 |ddv_scf|^2 =  6.407E-14

      iter #   6 total cpu time : 18126.9 secs   av.it.:  15.0
      thresh= 2.531E-08 alpha_mix =  0.700 |ddv_scf|^2 =  8.350E-15

     End of self-consistent calculation

     Convergence has been achieved 


     Representation #  32 mode #  32

     Self-consistent Calculation

      iter #   1 total cpu time : 18187.6 secs   av.it.:   3.4
      thresh= 1.000E-02 alpha_mix =  0.700 |ddv_scf|^2 =  2.817E-09

      iter #   2 total cpu time : 18270.6 secs   av.it.:  15.9
      thresh= 5.308E-06 alpha_mix =  0.700 |ddv_scf|^2 =  1.682E-09

      iter #   3 total cpu time : 18349.0 secs   av.it.:  14.8
      thresh= 4.102E-06 alpha_mix =  0.700 |ddv_scf|^2 =  8.827E-12

      iter #   4 total cpu time : 18440.5 secs   av.it.:  14.9
      thresh= 2.971E-07 alpha_mix =  0.700 |ddv_scf|^2 =  1.074E-12

      iter #   5 total cpu time : 18525.3 secs   av.it.:  15.0
      thresh= 1.036E-07 alpha_mix =  0.700 |ddv_scf|^2 =  8.950E-14

      iter #   6 total cpu time : 18604.8 secs   av.it.:  15.0
      thresh= 2.992E-08 alpha_mix =  0.700 |ddv_scf|^2 =  7.886E-15

     End of self-consistent calculation

     Convergence has been achieved 


     Representation #  33 mode #  33

     Self-consistent Calculation

      iter #   1 total cpu time : 18666.0 secs   av.it.:   3.7
      thresh= 1.000E-02 alpha_mix =  0.700 |ddv_scf|^2 =  4.682E-09

      iter #   2 total cpu time : 18746.9 secs   av.it.:  15.7
      thresh= 6.842E-06 alpha_mix =  0.700 |ddv_scf|^2 =  3.564E-09

      iter #   3 total cpu time : 18821.9 secs   av.it.:  14.9
      thresh= 5.970E-06 alpha_mix =  0.700 |ddv_scf|^2 =  6.140E-12

      iter #   4 total cpu time : 18903.7 secs   av.it.:  16.0
      thresh= 2.478E-07 alpha_mix =  0.700 |ddv_scf|^2 =  4.622E-13

      iter #   5 total cpu time : 18986.3 secs   av.it.:  15.9
      thresh= 6.799E-08 alpha_mix =  0.700 |ddv_scf|^2 =  1.864E-14

      iter #   6 total cpu time : 19067.5 secs   av.it.:  15.8
      thresh= 1.365E-08 alpha_mix =  0.700 |ddv_scf|^2 =  1.040E-15

     End of self-consistent calculation

     Convergence has been achieved 


     Representation #  34 mode #  34

     Self-consistent Calculation

      iter #   1 total cpu time : 19126.3 secs   av.it.:   3.0
      thresh= 1.000E-02 alpha_mix =  0.700 |ddv_scf|^2 =  7.795E-10

      iter #   2 total cpu time : 19208.0 secs   av.it.:  15.8
      thresh= 2.792E-06 alpha_mix =  0.700 |ddv_scf|^2 =  6.918E-11

      iter #   3 total cpu time : 19288.9 secs   av.it.:  15.4
      thresh= 8.317E-07 alpha_mix =  0.700 |ddv_scf|^2 =  4.664E-12

      iter #   4 total cpu time : 19368.5 secs   av.it.:  15.1
      thresh= 2.160E-07 alpha_mix =  0.700 |ddv_scf|^2 =  4.551E-13

      iter #   5 total cpu time : 19446.9 secs   av.it.:  15.0
      thresh= 6.746E-08 alpha_mix =  0.700 |ddv_scf|^2 =  1.884E-14

      iter #   6 total cpu time : 19527.2 secs   av.it.:  15.8
      thresh= 1.373E-08 alpha_mix =  0.700 |ddv_scf|^2 =  8.763E-16

     End of self-consistent calculation

     Convergence has been achieved 


     Representation #  35 mode #  35

     Self-consistent Calculation

      iter #   1 total cpu time : 19587.2 secs   av.it.:   3.0
      thresh= 1.000E-02 alpha_mix =  0.700 |ddv_scf|^2 =  3.124E-09

      iter #   2 total cpu time : 19667.4 secs   av.it.:  15.3
      thresh= 5.589E-06 alpha_mix =  0.700 |ddv_scf|^2 =  1.349E-09

      iter #   3 total cpu time : 19745.6 secs   av.it.:  14.9
      thresh= 3.673E-06 alpha_mix =  0.700 |ddv_scf|^2 =  1.996E-11

      iter #   4 total cpu time : 19825.2 secs   av.it.:  15.0
      thresh= 4.467E-07 alpha_mix =  0.700 |ddv_scf|^2 =  5.454E-13

      iter #   5 total cpu time : 19906.6 secs   av.it.:  15.7
      thresh= 7.385E-08 alpha_mix =  0.700 |ddv_scf|^2 =  3.662E-14

      iter #   6 total cpu time : 19983.4 secs   av.it.:  15.0
      thresh= 1.914E-08 alpha_mix =  0.700 |ddv_scf|^2 =  1.431E-15

     End of self-consistent calculation

     Convergence has been achieved 


     Representation #  36 mode #  36

     Self-consistent Calculation

      iter #   1 total cpu time : 20047.9 secs   av.it.:   4.4
      thresh= 1.000E-02 alpha_mix =  0.700 |ddv_scf|^2 =  5.643E-09

      iter #   2 total cpu time : 20129.4 secs   av.it.:  16.0
      thresh= 7.512E-06 alpha_mix =  0.700 |ddv_scf|^2 =  3.944E-10

      iter #   3 total cpu time : 20211.8 secs   av.it.:  15.9
      thresh= 1.986E-06 alpha_mix =  0.700 |ddv_scf|^2 =  1.628E-11

      iter #   4 total cpu time : 20293.0 secs   av.it.:  15.7
      thresh= 4.035E-07 alpha_mix =  0.700 |ddv_scf|^2 =  3.854E-12

      iter #   5 total cpu time : 20371.6 secs   av.it.:  15.1
      thresh= 1.963E-07 alpha_mix =  0.700 |ddv_scf|^2 =  1.523E-13

      iter #   6 total cpu time : 20452.2 secs   av.it.:  15.4
      thresh= 3.903E-08 alpha_mix =  0.700 |ddv_scf|^2 =  3.790E-15

     End of self-consistent calculation

     Convergence has been achieved 


     Representation #  37 mode #  37

     Self-consistent Calculation

      iter #   1 total cpu time : 20528.9 secs   av.it.:   3.0
      thresh= 1.000E-02 alpha_mix =  0.700 |ddv_scf|^2 =  9.214E-10

      iter #   2 total cpu time : 20611.8 secs   av.it.:  15.9
      thresh= 3.035E-06 alpha_mix =  0.700 |ddv_scf|^2 =  1.624E-10

      iter #   3 total cpu time : 20693.5 secs   av.it.:  15.4
      thresh= 1.274E-06 alpha_mix =  0.700 |ddv_scf|^2 =  2.109E-11

      iter #   4 total cpu time : 20772.9 secs   av.it.:  14.9
      thresh= 4.592E-07 alpha_mix =  0.700 |ddv_scf|^2 =  2.973E-13

      iter #   5 total cpu time : 20854.3 secs   av.it.:  15.3
      thresh= 5.453E-08 alpha_mix =  0.700 |ddv_scf|^2 =  6.646E-15

     End of self-consistent calculation

     Convergence has been achieved 


     Representation #  38 mode #  38

     Self-consistent Calculation

      iter #   1 total cpu time : 20914.8 secs   av.it.:   3.0
      thresh= 1.000E-02 alpha_mix =  0.700 |ddv_scf|^2 =  1.924E-09

      iter #   2 total cpu time : 20992.9 secs   av.it.:  15.6
      thresh= 4.387E-06 alpha_mix =  0.700 |ddv_scf|^2 =  4.662E-10

      iter #   3 total cpu time : 21068.5 secs   av.it.:  15.0
      thresh= 2.159E-06 alpha_mix =  0.700 |ddv_scf|^2 =  1.734E-11

      iter #   4 total cpu time : 21147.5 secs   av.it.:  14.9
      thresh= 4.164E-07 alpha_mix =  0.700 |ddv_scf|^2 =  8.933E-13

      iter #   5 total cpu time : 21228.2 secs   av.it.:  15.4
      thresh= 9.451E-08 alpha_mix =  0.700 |ddv_scf|^2 =  2.621E-14

      iter #   6 total cpu time : 21308.2 secs   av.it.:  15.3
      thresh= 1.619E-08 alpha_mix =  0.700 |ddv_scf|^2 =  9.954E-16

     End of self-consistent calculation

     Convergence has been achieved 


     Representation #  39 mode #  39

     Self-consistent Calculation

      iter #   1 total cpu time : 21381.7 secs   av.it.:   6.3
      thresh= 1.000E-02 alpha_mix =  0.700 |ddv_scf|^2 =  2.285E-07

      iter #   2 total cpu time : 21460.4 secs   av.it.:  14.9
      thresh= 4.780E-05 alpha_mix =  0.700 |ddv_scf|^2 =  1.205E-07

      iter #   3 total cpu time : 21537.1 secs   av.it.:  14.6
      thresh= 3.472E-05 alpha_mix =  0.700 |ddv_scf|^2 =  5.418E-10

      iter #   4 total cpu time : 21616.8 secs   av.it.:  15.2
      thresh= 2.328E-06 alpha_mix =  0.700 |ddv_scf|^2 =  1.149E-11

      iter #   5 total cpu time : 21696.8 secs   av.it.:  15.5
      thresh= 3.390E-07 alpha_mix =  0.700 |ddv_scf|^2 =  4.884E-13

      iter #   6 total cpu time : 21773.5 secs   av.it.:  14.7
      thresh= 6.988E-08 alpha_mix =  0.700 |ddv_scf|^2 =  2.689E-14

      iter #   7 total cpu time : 21849.4 secs   av.it.:  14.7
      thresh= 1.640E-08 alpha_mix =  0.700 |ddv_scf|^2 =  3.796E-15

     End of self-consistent calculation

     Convergence has been achieved 


     Representation #  40 mode #  40

     Self-consistent Calculation

      iter #   1 total cpu time : 21920.4 secs   av.it.:   4.6
      thresh= 1.000E-02 alpha_mix =  0.700 |ddv_scf|^2 =  8.381E-09

      iter #   2 total cpu time : 22002.9 secs   av.it.:  15.9
      thresh= 9.155E-06 alpha_mix =  0.700 |ddv_scf|^2 =  1.974E-09

      iter #   3 total cpu time : 22083.0 secs   av.it.:  15.1
      thresh= 4.443E-06 alpha_mix =  0.700 |ddv_scf|^2 =  6.400E-11

      iter #   4 total cpu time : 22162.6 secs   av.it.:  14.9
      thresh= 8.000E-07 alpha_mix =  0.700 |ddv_scf|^2 =  6.112E-12

      iter #   5 total cpu time : 22242.6 secs   av.it.:  15.2
      thresh= 2.472E-07 alpha_mix =  0.700 |ddv_scf|^2 =  3.417E-13

      iter #   6 total cpu time : 22323.8 secs   av.it.:  15.6
      thresh= 5.846E-08 alpha_mix =  0.700 |ddv_scf|^2 =  1.106E-15

     End of self-consistent calculation

     Convergence has been achieved 


     Representation #  41 mode #  41

     Self-consistent Calculation

      iter #   1 total cpu time : 22402.5 secs   av.it.:   3.9
      thresh= 1.000E-02 alpha_mix =  0.700 |ddv_scf|^2 =  6.211E-09

      iter #   2 total cpu time : 22483.6 secs   av.it.:  15.4
      thresh= 7.881E-06 alpha_mix =  0.700 |ddv_scf|^2 =  4.289E-09

      iter #   3 total cpu time : 22560.7 secs   av.it.:  14.9
      thresh= 6.549E-06 alpha_mix =  0.700 |ddv_scf|^2 =  4.981E-12

      iter #   4 total cpu time : 22641.4 secs   av.it.:  15.8
      thresh= 2.232E-07 alpha_mix =  0.700 |ddv_scf|^2 =  7.691E-13

      iter #   5 total cpu time : 22719.0 secs   av.it.:  15.3
      thresh= 8.770E-08 alpha_mix =  0.700 |ddv_scf|^2 =  4.927E-14

      iter #   6 total cpu time : 22798.3 secs   av.it.:  15.0
      thresh= 2.220E-08 alpha_mix =  0.700 |ddv_scf|^2 =  7.025E-16

     End of self-consistent calculation

     Convergence has been achieved 


     Representation #  42 mode #  42

     Self-consistent Calculation

      iter #   1 total cpu time : 22856.7 secs   av.it.:   3.0
      thresh= 1.000E-02 alpha_mix =  0.700 |ddv_scf|^2 =  3.834E-10

      iter #   2 total cpu time : 22938.3 secs   av.it.:  15.6
      thresh= 1.958E-06 alpha_mix =  0.700 |ddv_scf|^2 =  2.157E-11

      iter #   3 total cpu time : 23020.7 secs   av.it.:  15.9
      thresh= 4.644E-07 alpha_mix =  0.700 |ddv_scf|^2 =  1.220E-11

      iter #   4 total cpu time : 23098.4 secs   av.it.:  14.9
      thresh= 3.492E-07 alpha_mix =  0.700 |ddv_scf|^2 =  1.807E-13

      iter #   5 total cpu time : 23178.7 secs   av.it.:  15.3
      thresh= 4.251E-08 alpha_mix =  0.700 |ddv_scf|^2 =  1.116E-14

      iter #   6 total cpu time : 23258.4 secs   av.it.:  15.3
      thresh= 1.056E-08 alpha_mix =  0.700 |ddv_scf|^2 =  5.067E-16

     End of self-consistent calculation

     Convergence has been achieved 


     Representation #  43 mode #  43

     Self-consistent Calculation

      iter #   1 total cpu time : 23324.1 secs   av.it.:   4.4
      thresh= 1.000E-02 alpha_mix =  0.700 |ddv_scf|^2 =  5.735E-09

      iter #   2 total cpu time : 23407.3 secs   av.it.:  15.9
      thresh= 7.573E-06 alpha_mix =  0.700 |ddv_scf|^2 =  4.409E-10

      iter #   3 total cpu time : 23488.7 secs   av.it.:  15.9
      thresh= 2.100E-06 alpha_mix =  0.700 |ddv_scf|^2 =  3.368E-11

      iter #   4 total cpu time : 23567.6 secs   av.it.:  15.0
      thresh= 5.803E-07 alpha_mix =  0.700 |ddv_scf|^2 =  4.322E-12

      iter #   5 total cpu time : 23646.7 secs   av.it.:  15.0
      thresh= 2.079E-07 alpha_mix =  0.700 |ddv_scf|^2 =  1.904E-14

      iter #   6 total cpu time : 23729.4 secs   av.it.:  15.9
      thresh= 1.380E-08 alpha_mix =  0.700 |ddv_scf|^2 =  6.114E-16

     End of self-consistent calculation

     Convergence has been achieved 


     Representation #  44 mode #  44

     Self-consistent Calculation

      iter #   1 total cpu time : 23820.3 secs   av.it.:   6.4
      thresh= 1.000E-02 alpha_mix =  0.700 |ddv_scf|^2 =  7.580E-08

      iter #   2 total cpu time : 23900.8 secs   av.it.:  15.4
      thresh= 2.753E-05 alpha_mix =  0.700 |ddv_scf|^2 =  2.354E-08

      iter #   3 total cpu time : 23977.9 secs   av.it.:  14.9
      thresh= 1.534E-05 alpha_mix =  0.700 |ddv_scf|^2 =  3.459E-10

      iter #   4 total cpu time : 24054.6 secs   av.it.:  14.9
      thresh= 1.860E-06 alpha_mix =  0.700 |ddv_scf|^2 =  1.950E-11

      iter #   5 total cpu time : 24134.5 secs   av.it.:  14.9
      thresh= 4.415E-07 alpha_mix =  0.700 |ddv_scf|^2 =  1.367E-13

      iter #   6 total cpu time : 24215.7 secs   av.it.:  15.6
      thresh= 3.698E-08 alpha_mix =  0.700 |ddv_scf|^2 =  5.643E-15

     End of self-consistent calculation

     Convergence has been achieved 


     Representation #  45 mode #  45

     Self-consistent Calculation

      iter #   1 total cpu time : 24279.1 secs   av.it.:   3.0
      thresh= 1.000E-02 alpha_mix =  0.700 |ddv_scf|^2 =  1.148E-09

      iter #   2 total cpu time : 24360.1 secs   av.it.:  15.9
      thresh= 3.388E-06 alpha_mix =  0.700 |ddv_scf|^2 =  2.751E-10

      iter #   3 total cpu time : 24439.2 secs   av.it.:  15.0
      thresh= 1.659E-06 alpha_mix =  0.700 |ddv_scf|^2 =  1.738E-11

      iter #   4 total cpu time : 24518.0 secs   av.it.:  15.0
      thresh= 4.169E-07 alpha_mix =  0.700 |ddv_scf|^2 =  4.604E-13

      iter #   5 total cpu time : 24599.5 secs   av.it.:  15.3
      thresh= 6.785E-08 alpha_mix =  0.700 |ddv_scf|^2 =  2.180E-14

      iter #   6 total cpu time : 24680.4 secs   av.it.:  15.1
      thresh= 1.477E-08 alpha_mix =  0.700 |ddv_scf|^2 =  1.173E-15

     End of self-consistent calculation

     Convergence has been achieved 


     Representation #  46 mode #  46

     Self-consistent Calculation

      iter #   1 total cpu time : 24740.6 secs   av.it.:   3.0
      thresh= 1.000E-02 alpha_mix =  0.700 |ddv_scf|^2 =  2.684E-09

      iter #   2 total cpu time : 24823.5 secs   av.it.:  15.9
      thresh= 5.181E-06 alpha_mix =  0.700 |ddv_scf|^2 =  2.085E-09

      iter #   3 total cpu time : 24901.1 secs   av.it.:  14.9
      thresh= 4.566E-06 alpha_mix =  0.700 |ddv_scf|^2 =  5.627E-12

      iter #   4 total cpu time : 24985.3 secs   av.it.:  15.9
      thresh= 2.372E-07 alpha_mix =  0.700 |ddv_scf|^2 =  5.438E-13

      iter #   5 total cpu time : 25068.8 secs   av.it.:  15.9
      thresh= 7.374E-08 alpha_mix =  0.700 |ddv_scf|^2 =  8.239E-15

     End of self-consistent calculation

     Convergence has been achieved 


     Representation #  47 mode #  47

     Self-consistent Calculation

      iter #   1 total cpu time : 25130.1 secs   av.it.:   3.7
      thresh= 1.000E-02 alpha_mix =  0.700 |ddv_scf|^2 =  2.954E-09

      iter #   2 total cpu time : 25212.6 secs   av.it.:  15.9
      thresh= 5.435E-06 alpha_mix =  0.700 |ddv_scf|^2 =  2.356E-09

      iter #   3 total cpu time : 25288.4 secs   av.it.:  14.9
      thresh= 4.854E-06 alpha_mix =  0.700 |ddv_scf|^2 =  6.972E-12

      iter #   4 total cpu time : 25368.3 secs   av.it.:  15.9
      thresh= 2.640E-07 alpha_mix =  0.700 |ddv_scf|^2 =  5.378E-13

      iter #   5 total cpu time : 25449.0 secs   av.it.:  15.8
      thresh= 7.333E-08 alpha_mix =  0.700 |ddv_scf|^2 =  1.039E-14

      iter #   6 total cpu time : 25529.7 secs   av.it.:  15.9
      thresh= 1.019E-08 alpha_mix =  0.700 |ddv_scf|^2 =  7.938E-16

     End of self-consistent calculation

     Convergence has been achieved 


     Representation #  48 mode #  48

     Self-consistent Calculation

      iter #   1 total cpu time : 25588.9 secs   av.it.:   3.0
      thresh= 1.000E-02 alpha_mix =  0.700 |ddv_scf|^2 =  4.066E-10

      iter #   2 total cpu time : 25671.2 secs   av.it.:  15.9
      thresh= 2.017E-06 alpha_mix =  0.700 |ddv_scf|^2 =  2.166E-11

      iter #   3 total cpu time : 25754.5 secs   av.it.:  15.9
      thresh= 4.654E-07 alpha_mix =  0.700 |ddv_scf|^2 =  2.673E-12

      iter #   4 total cpu time : 25836.6 secs   av.it.:  15.9
      thresh= 1.635E-07 alpha_mix =  0.700 |ddv_scf|^2 =  2.489E-13

      iter #   5 total cpu time : 25916.0 secs   av.it.:  15.0
      thresh= 4.989E-08 alpha_mix =  0.700 |ddv_scf|^2 =  2.190E-14

      iter #   6 total cpu time : 25994.9 secs   av.it.:  14.9
      thresh= 1.480E-08 alpha_mix =  0.700 |ddv_scf|^2 =  5.672E-16

     End of self-consistent calculation

     Convergence has been achieved 


     Representation #  49 mode #  49

     Self-consistent Calculation

      iter #   1 total cpu time : 26053.3 secs   av.it.:   3.0
      thresh= 1.000E-02 alpha_mix =  0.700 |ddv_scf|^2 =  1.216E-09

      iter #   2 total cpu time : 26133.0 secs   av.it.:  15.9
      thresh= 3.487E-06 alpha_mix =  0.700 |ddv_scf|^2 =  6.525E-10

      iter #   3 total cpu time : 26208.2 secs   av.it.:  14.9
      thresh= 2.554E-06 alpha_mix =  0.700 |ddv_scf|^2 =  8.708E-12

      iter #   4 total cpu time : 26284.8 secs   av.it.:  15.1
      thresh= 2.951E-07 alpha_mix =  0.700 |ddv_scf|^2 =  5.363E-13

      iter #   5 total cpu time : 26363.6 secs   av.it.:  15.9
      thresh= 7.323E-08 alpha_mix =  0.700 |ddv_scf|^2 =  1.625E-14

      iter #   6 total cpu time : 26442.4 secs   av.it.:  15.7
      thresh= 1.275E-08 alpha_mix =  0.700 |ddv_scf|^2 =  6.707E-16

     End of self-consistent calculation

     Convergence has been achieved 


     Representation #  50 mode #  50

     Self-consistent Calculation

      iter #   1 total cpu time : 26508.4 secs   av.it.:   4.8
      thresh= 1.000E-02 alpha_mix =  0.700 |ddv_scf|^2 =  1.027E-08

      iter #   2 total cpu time : 26590.4 secs   av.it.:  15.9
      thresh= 1.013E-05 alpha_mix =  0.700 |ddv_scf|^2 =  4.345E-09

      iter #   3 total cpu time : 26667.9 secs   av.it.:  14.9
      thresh= 6.592E-06 alpha_mix =  0.700 |ddv_scf|^2 =  1.300E-10

      iter #   4 total cpu time : 26746.7 secs   av.it.:  15.0
      thresh= 1.140E-06 alpha_mix =  0.700 |ddv_scf|^2 =  2.762E-12

      iter #   5 total cpu time : 26828.0 secs   av.it.:  15.6
      thresh= 1.662E-07 alpha_mix =  0.700 |ddv_scf|^2 =  4.802E-13

      iter #   6 total cpu time : 26908.0 secs   av.it.:  15.0
      thresh= 6.929E-08 alpha_mix =  0.700 |ddv_scf|^2 =  1.741E-15

     End of self-consistent calculation

     Convergence has been achieved 


     Representation #  51 mode #  51

     Self-consistent Calculation

      iter #   1 total cpu time : 26985.7 secs   av.it.:   3.1
      thresh= 1.000E-02 alpha_mix =  0.700 |ddv_scf|^2 =  3.185E-09

      iter #   2 total cpu time : 27068.5 secs   av.it.:  15.9
      thresh= 5.644E-06 alpha_mix =  0.700 |ddv_scf|^2 =  2.499E-09

      iter #   3 total cpu time : 27146.8 secs   av.it.:  14.9
      thresh= 4.999E-06 alpha_mix =  0.700 |ddv_scf|^2 =  5.480E-12

      iter #   4 total cpu time : 27231.0 secs   av.it.:  15.9
      thresh= 2.341E-07 alpha_mix =  0.700 |ddv_scf|^2 =  1.064E-12

      iter #   5 total cpu time : 27312.9 secs   av.it.:  15.6
      thresh= 1.032E-07 alpha_mix =  0.700 |ddv_scf|^2 =  5.567E-14

      iter #   6 total cpu time : 27394.6 secs   av.it.:  15.6
      thresh= 2.359E-08 alpha_mix =  0.700 |ddv_scf|^2 =  2.658E-15

     End of self-consistent calculation

     Convergence has been achieved 


     Representation #  52 mode #  52

     Self-consistent Calculation

      iter #   1 total cpu time : 27455.2 secs   av.it.:   3.2
      thresh= 1.000E-02 alpha_mix =  0.700 |ddv_scf|^2 =  2.381E-09

      iter #   2 total cpu time : 27537.5 secs   av.it.:  15.9
      thresh= 4.880E-06 alpha_mix =  0.700 |ddv_scf|^2 =  1.274E-09

      iter #   3 total cpu time : 27615.5 secs   av.it.:  14.9
      thresh= 3.570E-06 alpha_mix =  0.700 |ddv_scf|^2 =  1.345E-11

      iter #   4 total cpu time : 27693.9 secs   av.it.:  15.0
      thresh= 3.668E-07 alpha_mix =  0.700 |ddv_scf|^2 =  1.344E-12

      iter #   5 total cpu time : 27773.0 secs   av.it.:  15.2
      thresh= 1.159E-07 alpha_mix =  0.700 |ddv_scf|^2 =  4.862E-14

      iter #   6 total cpu time : 27852.7 secs   av.it.:  15.2
      thresh= 2.205E-08 alpha_mix =  0.700 |ddv_scf|^2 =  1.320E-15

     End of self-consistent calculation

     Convergence has been achieved 


     Representation #  53 mode #  53

     Self-consistent Calculation

      iter #   1 total cpu time : 27912.4 secs   av.it.:   3.0
      thresh= 1.000E-02 alpha_mix =  0.700 |ddv_scf|^2 =  1.368E-09

      iter #   2 total cpu time : 27994.2 secs   av.it.:  15.9
      thresh= 3.698E-06 alpha_mix =  0.700 |ddv_scf|^2 =  6.026E-10

      iter #   3 total cpu time : 28072.4 secs   av.it.:  15.0
      thresh= 2.455E-06 alpha_mix =  0.700 |ddv_scf|^2 =  9.022E-12

      iter #   4 total cpu time : 28153.2 secs   av.it.:  15.4
      thresh= 3.004E-07 alpha_mix =  0.700 |ddv_scf|^2 =  1.215E-12

      iter #   5 total cpu time : 28231.5 secs   av.it.:  15.0
      thresh= 1.102E-07 alpha_mix =  0.700 |ddv_scf|^2 =  6.059E-14

      iter #   6 total cpu time : 28310.1 secs   av.it.:  15.3
      thresh= 2.461E-08 alpha_mix =  0.700 |ddv_scf|^2 =  1.752E-15

     End of self-consistent calculation

     Convergence has been achieved 


     Representation #  54 mode #  54

     Self-consistent Calculation

      iter #   1 total cpu time : 28370.3 secs   av.it.:   3.0
      thresh= 1.000E-02 alpha_mix =  0.700 |ddv_scf|^2 =  4.338E-09

      iter #   2 total cpu time : 28450.7 secs   av.it.:  15.2
      thresh= 6.586E-06 alpha_mix =  0.700 |ddv_scf|^2 =  3.078E-09

      iter #   3 total cpu time : 28526.0 secs   av.it.:  14.6
      thresh= 5.548E-06 alpha_mix =  0.700 |ddv_scf|^2 =  6.515E-12

      iter #   4 total cpu time : 28606.8 secs   av.it.:  15.7
      thresh= 2.552E-07 alpha_mix =  0.700 |ddv_scf|^2 =  7.485E-13

      iter #   5 total cpu time : 28687.1 secs   av.it.:  15.3
      thresh= 8.652E-08 alpha_mix =  0.700 |ddv_scf|^2 =  2.502E-14

      iter #   6 total cpu time : 28768.9 secs   av.it.:  15.9
      thresh= 1.582E-08 alpha_mix =  0.700 |ddv_scf|^2 =  2.144E-15

     End of self-consistent calculation

     Convergence has been achieved 


     Representation #  55 mode #  55

     Self-consistent Calculation

      iter #   1 total cpu time : 28827.4 secs   av.it.:   3.0
      thresh= 1.000E-02 alpha_mix =  0.700 |ddv_scf|^2 =  7.090E-10

      iter #   2 total cpu time : 28909.7 secs   av.it.:  15.9
      thresh= 2.663E-06 alpha_mix =  0.700 |ddv_scf|^2 =  1.688E-10

      iter #   3 total cpu time : 28989.7 secs   av.it.:  15.4
      thresh= 1.299E-06 alpha_mix =  0.700 |ddv_scf|^2 =  7.122E-12

      iter #   4 total cpu time : 29070.2 secs   av.it.:  15.4
      thresh= 2.669E-07 alpha_mix =  0.700 |ddv_scf|^2 =  1.465E-13

      iter #   5 total cpu time : 29151.9 secs   av.it.:  15.9
      thresh= 3.827E-08 alpha_mix =  0.700 |ddv_scf|^2 =  2.335E-14

      iter #   6 total cpu time : 29230.1 secs   av.it.:  15.0
      thresh= 1.528E-08 alpha_mix =  0.700 |ddv_scf|^2 =  1.937E-15

     End of self-consistent calculation

     Convergence has been achieved 


     Representation #  56 mode #  56

     Self-consistent Calculation

      iter #   1 total cpu time : 29305.3 secs   av.it.:   6.9
      thresh= 1.000E-02 alpha_mix =  0.700 |ddv_scf|^2 =  2.173E-07

      iter #   2 total cpu time : 29383.4 secs   av.it.:  15.1
      thresh= 4.662E-05 alpha_mix =  0.700 |ddv_scf|^2 =  1.743E-07

      iter #   3 total cpu time : 29458.4 secs   av.it.:  14.5
      thresh= 4.175E-05 alpha_mix =  0.700 |ddv_scf|^2 =  1.547E-10

      iter #   4 total cpu time : 29539.6 secs   av.it.:  15.6
      thresh= 1.244E-06 alpha_mix =  0.700 |ddv_scf|^2 =  2.218E-11

      iter #   5 total cpu time : 29620.0 secs   av.it.:  15.5
      thresh= 4.709E-07 alpha_mix =  0.700 |ddv_scf|^2 =  1.213E-12

      iter #   6 total cpu time : 29700.0 secs   av.it.:  15.5
      thresh= 1.101E-07 alpha_mix =  0.700 |ddv_scf|^2 =  2.761E-14

      iter #   7 total cpu time : 29780.8 secs   av.it.:  15.7
      thresh= 1.662E-08 alpha_mix =  0.700 |ddv_scf|^2 =  2.248E-15

     End of self-consistent calculation

     Convergence has been achieved 


     Representation #  57 mode #  57

     Self-consistent Calculation

      iter #   1 total cpu time : 29851.8 secs   av.it.:   5.0
      thresh= 1.000E-02 alpha_mix =  0.700 |ddv_scf|^2 =  3.619E-08

      iter #   2 total cpu time : 29931.7 secs   av.it.:  15.1
      thresh= 1.902E-05 alpha_mix =  0.700 |ddv_scf|^2 =  2.563E-08

      iter #   3 total cpu time : 30007.2 secs   av.it.:  14.6
      thresh= 1.601E-05 alpha_mix =  0.700 |ddv_scf|^2 =  5.680E-11

      iter #   4 total cpu time : 30087.7 secs   av.it.:  15.9
      thresh= 7.537E-07 alpha_mix =  0.700 |ddv_scf|^2 =  5.589E-12

      iter #   5 total cpu time : 30166.6 secs   av.it.:  15.6
      thresh= 2.364E-07 alpha_mix =  0.700 |ddv_scf|^2 =  9.024E-13

      iter #   6 total cpu time : 30246.7 secs   av.it.:  15.3
      thresh= 9.499E-08 alpha_mix =  0.700 |ddv_scf|^2 =  5.584E-15

     End of self-consistent calculation

     Convergence has been achieved 


     Representation #  58 mode #  58

     Self-consistent Calculation

      iter #   1 total cpu time : 30322.5 secs   av.it.:   3.0
      thresh= 1.000E-02 alpha_mix =  0.700 |ddv_scf|^2 =  8.958E-10

      iter #   2 total cpu time : 30403.2 secs   av.it.:  15.6
      thresh= 2.993E-06 alpha_mix =  0.700 |ddv_scf|^2 =  3.787E-10

      iter #   3 total cpu time : 30480.3 secs   av.it.:  14.9
      thresh= 1.946E-06 alpha_mix =  0.700 |ddv_scf|^2 =  1.284E-11

      iter #   4 total cpu time : 30557.9 secs   av.it.:  14.9
      thresh= 3.583E-07 alpha_mix =  0.700 |ddv_scf|^2 =  4.661E-13

      iter #   5 total cpu time : 30638.2 secs   av.it.:  15.4
      thresh= 6.827E-08 alpha_mix =  0.700 |ddv_scf|^2 =  2.485E-14

      iter #   6 total cpu time : 30718.4 secs   av.it.:  15.4
      thresh= 1.577E-08 alpha_mix =  0.700 |ddv_scf|^2 =  1.808E-15

     End of self-consistent calculation

     Convergence has been achieved 


     Representation #  59 mode #  59

     Self-consistent Calculation

      iter #   1 total cpu time : 30777.4 secs   av.it.:   3.0
      thresh= 1.000E-02 alpha_mix =  0.700 |ddv_scf|^2 =  1.577E-09

      iter #   2 total cpu time : 30859.4 secs   av.it.:  15.9
      thresh= 3.971E-06 alpha_mix =  0.700 |ddv_scf|^2 =  7.399E-10

      iter #   3 total cpu time : 30936.1 secs   av.it.:  14.9
      thresh= 2.720E-06 alpha_mix =  0.700 |ddv_scf|^2 =  1.233E-11

      iter #   4 total cpu time : 31016.3 secs   av.it.:  15.0
      thresh= 3.511E-07 alpha_mix =  0.700 |ddv_scf|^2 =  1.265E-12

      iter #   5 total cpu time : 31097.0 secs   av.it.:  15.1
      thresh= 1.125E-07 alpha_mix =  0.700 |ddv_scf|^2 =  4.444E-14

      iter #   6 total cpu time : 31178.5 secs   av.it.:  15.3
      thresh= 2.108E-08 alpha_mix =  0.700 |ddv_scf|^2 =  1.590E-15

     End of self-consistent calculation

     Convergence has been achieved 


     Representation #  60 mode #  60

     Self-consistent Calculation

      iter #   1 total cpu time : 31238.7 secs   av.it.:   3.0
      thresh= 1.000E-02 alpha_mix =  0.700 |ddv_scf|^2 =  2.305E-09

      iter #   2 total cpu time : 31320.9 secs   av.it.:  15.9
      thresh= 4.801E-06 alpha_mix =  0.700 |ddv_scf|^2 =  1.265E-09

      iter #   3 total cpu time : 31399.4 secs   av.it.:  14.9
      thresh= 3.557E-06 alpha_mix =  0.700 |ddv_scf|^2 =  5.733E-12

      iter #   4 total cpu time : 31479.3 secs   av.it.:  15.4
      thresh= 2.394E-07 alpha_mix =  0.700 |ddv_scf|^2 =  1.653E-12

      iter #   5 total cpu time : 31556.9 secs   av.it.:  15.0
      thresh= 1.286E-07 alpha_mix =  0.700 |ddv_scf|^2 =  4.967E-14

      iter #   6 total cpu time : 31637.8 secs   av.it.:  15.7
      thresh= 2.229E-08 alpha_mix =  0.700 |ddv_scf|^2 =  2.213E-15

     End of self-consistent calculation

     Convergence has been achieved 


     Representation #  61 mode #  61

     Self-consistent Calculation

      iter #   1 total cpu time : 31698.9 secs   av.it.:   3.1
      thresh= 1.000E-02 alpha_mix =  0.700 |ddv_scf|^2 =  5.431E-09

      iter #   2 total cpu time : 31779.5 secs   av.it.:  15.2
      thresh= 7.370E-06 alpha_mix =  0.700 |ddv_scf|^2 =  3.482E-09

      iter #   3 total cpu time : 31856.5 secs   av.it.:  14.8
      thresh= 5.901E-06 alpha_mix =  0.700 |ddv_scf|^2 =  1.415E-11

      iter #   4 total cpu time : 31936.6 secs   av.it.:  15.0
      thresh= 3.762E-07 alpha_mix =  0.700 |ddv_scf|^2 =  1.275E-12

      iter #   5 total cpu time : 32018.2 secs   av.it.:  15.2
      thresh= 1.129E-07 alpha_mix =  0.700 |ddv_scf|^2 =  7.351E-14

      iter #   6 total cpu time : 32097.8 secs   av.it.:  15.0
[...]

      iter #   4 total cpu time :915745.4 secs   av.it.:  15.0
      thresh= 7.118E-07 alpha_mix =  0.700 |ddv_scf|^2 =  3.857E-12

      iter #   5 total cpu time :916105.1 secs   av.it.:  15.0
      thresh= 1.964E-07 alpha_mix =  0.700 |ddv_scf|^2 =  2.055E-13

      iter #   6 total cpu time :916467.7 secs   av.it.:  15.1
      thresh= 4.533E-08 alpha_mix =  0.700 |ddv_scf|^2 =  1.658E-14

      iter #   7 total cpu time :916831.7 secs   av.it.:  15.6
      thresh= 1.288E-08 alpha_mix =  0.700 |ddv_scf|^2 =  1.596E-15

     End of self-consistent calculation

     Convergence has been achieved 


     Representation #  64 mode #  64

     Self-consistent Calculation

      iter #   1 total cpu time :917004.5 secs   av.it.:   3.2
      thresh= 1.000E-02 alpha_mix =  0.700 |ddv_scf|^2 =  4.946E-09

      iter #   2 total cpu time :917378.7 secs   av.it.:  15.9
      thresh= 7.033E-06 alpha_mix =  0.700 |ddv_scf|^2 =  3.887E-09

      iter #   3 total cpu time :917732.3 secs   av.it.:  15.0
      thresh= 6.235E-06 alpha_mix =  0.700 |ddv_scf|^2 =  4.135E-11

      iter #   4 total cpu time :918093.2 secs   av.it.:  15.0
      thresh= 6.431E-07 alpha_mix =  0.700 |ddv_scf|^2 =  5.176E-12

      iter #   5 total cpu time :918449.5 secs   av.it.:  15.0
      thresh= 2.275E-07 alpha_mix =  0.700 |ddv_scf|^2 =  2.083E-13

      iter #   6 total cpu time :918816.0 secs   av.it.:  15.3
      thresh= 4.564E-08 alpha_mix =  0.700 |ddv_scf|^2 =  1.878E-14

      iter #   7 total cpu time :919182.8 secs   av.it.:  15.4
      thresh= 1.370E-08 alpha_mix =  0.700 |ddv_scf|^2 =  2.590E-15

     End of self-consistent calculation

     Convergence has been achieved 


     Representation #  65 mode #  65

     Self-consistent Calculation

      iter #   1 total cpu time :919354.3 secs   av.it.:   3.0
      thresh= 1.000E-02 alpha_mix =  0.700 |ddv_scf|^2 =  4.816E-09

      iter #   2 total cpu time :919719.3 secs   av.it.:  15.1
      thresh= 6.940E-06 alpha_mix =  0.700 |ddv_scf|^2 =  4.909E-09

      iter #   3 total cpu time :920053.9 secs   av.it.:  14.0
      thresh= 7.006E-06 alpha_mix =  0.700 |ddv_scf|^2 =  3.549E-11

      iter #   4 total cpu time :920415.3 secs   av.it.:  15.0
      thresh= 5.957E-07 alpha_mix =  0.700 |ddv_scf|^2 =  2.503E-12

      iter #   5 total cpu time :920781.8 secs   av.it.:  15.2
      thresh= 1.582E-07 alpha_mix =  0.700 |ddv_scf|^2 =  1.691E-13

      iter #   6 total cpu time :921137.2 secs   av.it.:  15.0
      thresh= 4.113E-08 alpha_mix =  0.700 |ddv_scf|^2 =  1.206E-14

      iter #   7 total cpu time :921501.0 secs   av.it.:  15.3
      thresh= 1.098E-08 alpha_mix =  0.700 |ddv_scf|^2 =  9.865E-16

     End of self-consistent calculation

     Convergence has been achieved 


     Representation #  66 mode #  66

     Self-consistent Calculation

      iter #   1 total cpu time :921673.3 secs   av.it.:   3.1
      thresh= 1.000E-02 alpha_mix =  0.700 |ddv_scf|^2 =  3.979E-09

      iter #   2 total cpu time :922042.1 secs   av.it.:  15.9
      thresh= 6.308E-06 alpha_mix =  0.700 |ddv_scf|^2 =  2.793E-09

      iter #   3 total cpu time :922389.9 secs   av.it.:  15.0
      thresh= 5.285E-06 alpha_mix =  0.700 |ddv_scf|^2 =  6.094E-11

      iter #   4 total cpu time :922736.8 secs   av.it.:  15.0
      thresh= 7.807E-07 alpha_mix =  0.700 |ddv_scf|^2 =  3.306E-12

      iter #   5 total cpu time :923096.4 secs   av.it.:  15.0
      thresh= 1.818E-07 alpha_mix =  0.700 |ddv_scf|^2 =  1.304E-13

      iter #   6 total cpu time :923465.7 secs   av.it.:  15.7
      thresh= 3.611E-08 alpha_mix =  0.700 |ddv_scf|^2 =  1.444E-14

      iter #   7 total cpu time :923827.9 secs   av.it.:  15.1
      thresh= 1.202E-08 alpha_mix =  0.700 |ddv_scf|^2 =  1.243E-15

     End of self-consistent calculation

     Convergence has been achieved 

     Number of q in the star =    4
     List of q in the star:
          1   0.333333333   0.322651085   0.475691218
          2   0.333333333  -0.322651085  -0.475691218
          3  -0.333333333   0.322651085  -0.475691218
          4  -0.333333333  -0.322651085   0.475691218
     In addition there is the -q list: 
          1  -0.333333333  -0.322651085  -0.475691218
          2  -0.333333333   0.322651085   0.475691218
          3   0.333333333  -0.322651085   0.475691218
          4   0.333333333   0.322651085  -0.475691218

     Diagonalizing the dynamical matrix

     q = (    0.333333333   0.322651085   0.475691218 ) 

 **************************************************************************
     freq (    1) =       1.247485 [THz] =      41.611628 [cm-1]
     freq (    2) =       1.311029 [THz] =      43.731216 [cm-1]
     freq (    3) =       1.855068 [THz] =      61.878421 [cm-1]
     freq (    4) =       2.094443 [THz] =      69.863111 [cm-1]
     freq (    5) =       2.958061 [THz] =      98.670306 [cm-1]
     freq (    6) =       3.063930 [THz] =     102.201701 [cm-1]
     freq (    7) =       5.054842 [THz] =     168.611393 [cm-1]
     freq (    8) =       5.183803 [THz] =     172.913046 [cm-1]
     freq (    9) =       5.972804 [THz] =     199.231291 [cm-1]
     freq (   10) =       6.244092 [THz] =     208.280480 [cm-1]
     freq (   11) =       6.667691 [THz] =     222.410237 [cm-1]
     freq (   12) =       6.678250 [THz] =     222.762439 [cm-1]
     freq (   13) =       6.967845 [THz] =     232.422282 [cm-1]
     freq (   14) =       7.324405 [THz] =     244.315841 [cm-1]
     freq (   15) =       7.796887 [THz] =     260.076157 [cm-1]
     freq (   16) =       7.883102 [THz] =     262.951971 [cm-1]
     freq (   17) =       8.839580 [THz] =     294.856658 [cm-1]
     freq (   18) =       8.862470 [THz] =     295.620195 [cm-1]
     freq (   19) =       9.233273 [THz] =     307.988822 [cm-1]
     freq (   20) =       9.280073 [THz] =     309.549901 [cm-1]
     freq (   21) =       9.961379 [THz] =     332.275845 [cm-1]
     freq (   22) =      10.190886 [THz] =     339.931355 [cm-1]
     freq (   23) =      10.614292 [THz] =     354.054677 [cm-1]
     freq (   24) =      10.642065 [THz] =     354.981072 [cm-1]
     freq (   25) =      11.082943 [THz] =     369.687201 [cm-1]
     freq (   26) =      11.185716 [THz] =     373.115318 [cm-1]
     freq (   27) =      13.747400 [THz] =     458.563919 [cm-1]
     freq (   28) =      13.808489 [THz] =     460.601625 [cm-1]
     freq (   29) =      13.853277 [THz] =     462.095569 [cm-1]
     freq (   30) =      13.957873 [THz] =     465.584536 [cm-1]
     freq (   31) =      30.890341 [THz] =    1030.390866 [cm-1]
     freq (   32) =      30.911153 [THz] =    1031.085081 [cm-1]
     freq (   33) =      31.093391 [THz] =    1037.163895 [cm-1]
     freq (   34) =      31.118379 [THz] =    1037.997388 [cm-1]
     freq (   35) =      32.027733 [THz] =    1068.330176 [cm-1]
     freq (   36) =      32.049127 [THz] =    1069.043797 [cm-1]
     freq (   37) =      32.087146 [THz] =    1070.311987 [cm-1]
     freq (   38) =      32.138195 [THz] =    1072.014778 [cm-1]
     freq (   39) =      32.373410 [THz] =    1079.860710 [cm-1]
     freq (   40) =      32.402647 [THz] =    1080.835977 [cm-1]
     freq (   41) =      32.529987 [THz] =    1085.083560 [cm-1]
     freq (   42) =      32.579859 [THz] =    1086.747114 [cm-1]
     freq (   43) =      35.888449 [THz] =    1197.109813 [cm-1]
     freq (   44) =      35.923362 [THz] =    1198.274373 [cm-1]
     freq (   45) =      36.117439 [THz] =    1204.748075 [cm-1]
     freq (   46) =      36.157699 [THz] =    1206.091026 [cm-1]
     freq (   47) =      36.215021 [THz] =    1208.003059 [cm-1]
     freq (   48) =      36.236123 [THz] =    1208.706951 [cm-1]
     freq (   49) =      36.331793 [THz] =    1211.898173 [cm-1]
     freq (   50) =      36.352095 [THz] =    1212.575378 [cm-1]
     freq (   51) =      68.238223 [THz] =    2276.182119 [cm-1]
     freq (   52) =      68.260037 [THz] =    2276.909754 [cm-1]
     freq (   53) =      68.293648 [THz] =    2278.030879 [cm-1]
     freq (   54) =      68.337920 [THz] =    2279.507639 [cm-1]
     freq (   55) =      70.271642 [THz] =    2344.009674 [cm-1]
     freq (   56) =      70.277334 [THz] =    2344.199525 [cm-1]
     freq (   57) =      70.414011 [THz] =    2348.758597 [cm-1]
     freq (   58) =      70.418455 [THz] =    2348.906831 [cm-1]
     freq (   59) =      71.137017 [THz] =    2372.875462 [cm-1]
     freq (   60) =      71.146961 [THz] =    2373.207172 [cm-1]
     freq (   61) =      71.225996 [THz] =    2375.843507 [cm-1]
     freq (   62) =      71.248484 [THz] =    2376.593620 [cm-1]
     freq (   63) =      71.661533 [THz] =    2390.371425 [cm-1]
     freq (   64) =      71.678459 [THz] =    2390.936040 [cm-1]
     freq (   65) =      71.808608 [THz] =    2395.277327 [cm-1]
     freq (   66) =      71.845423 [THz] =    2396.505364 [cm-1]
 **************************************************************************

     Mode symmetry, C_1 (1)     point group:

     freq (   1-   1) =         41.6  [cm-1]   --> A                  
     freq (   2-   2) =         43.7  [cm-1]   --> A                  
     freq (   3-   3) =         61.9  [cm-1]   --> A                  
     freq (   4-   4) =         69.9  [cm-1]   --> A                  
     freq (   5-   5) =         98.7  [cm-1]   --> A                  
     freq (   6-   6) =        102.2  [cm-1]   --> A                  
     freq (   7-   7) =        168.6  [cm-1]   --> A                  
     freq (   8-   8) =        172.9  [cm-1]   --> A                  
     freq (   9-   9) =        199.2  [cm-1]   --> A                  
     freq (  10-  10) =        208.3  [cm-1]   --> A                  
     freq (  11-  11) =        222.4  [cm-1]   --> A                  
     freq (  12-  12) =        222.8  [cm-1]   --> A                  
     freq (  13-  13) =        232.4  [cm-1]   --> A                  
     freq (  14-  14) =        244.3  [cm-1]   --> A                  
     freq (  15-  15) =        260.1  [cm-1]   --> A                  
     freq (  16-  16) =        263.0  [cm-1]   --> A                  
     freq (  17-  17) =        294.9  [cm-1]   --> A                  
     freq (  18-  18) =        295.6  [cm-1]   --> A                  
     freq (  19-  19) =        308.0  [cm-1]   --> A                  
     freq (  20-  20) =        309.5  [cm-1]   --> A                  
     freq (  21-  21) =        332.3  [cm-1]   --> A                  
     freq (  22-  22) =        339.9  [cm-1]   --> A                  
     freq (  23-  23) =        354.1  [cm-1]   --> A                  
     freq (  24-  24) =        355.0  [cm-1]   --> A                  
     freq (  25-  25) =        369.7  [cm-1]   --> A                  
     freq (  26-  26) =        373.1  [cm-1]   --> A                  
     freq (  27-  27) =        458.6  [cm-1]   --> A                  
     freq (  28-  28) =        460.6  [cm-1]   --> A                  
     freq (  29-  29) =        462.1  [cm-1]   --> A                  
     freq (  30-  30) =        465.6  [cm-1]   --> A                  
     freq (  31-  31) =       1030.4  [cm-1]   --> A                  
     freq (  32-  32) =       1031.1  [cm-1]   --> A                  
     freq (  33-  33) =       1037.2  [cm-1]   --> A                  
     freq (  34-  34) =       1038.0  [cm-1]   --> A                  
     freq (  35-  35) =       1068.3  [cm-1]   --> A                  
     freq (  36-  36) =       1069.0  [cm-1]   --> A                  
     freq (  37-  37) =       1070.3  [cm-1]   --> A                  
     freq (  38-  38) =       1072.0  [cm-1]   --> A                  
     freq (  39-  39) =       1079.9  [cm-1]   --> A                  
     freq (  40-  40) =       1080.8  [cm-1]   --> A                  
     freq (  41-  41) =       1085.1  [cm-1]   --> A                  
     freq (  42-  42) =       1086.7  [cm-1]   --> A                  
     freq (  43-  43) =       1197.1  [cm-1]   --> A                  
     freq (  44-  44) =       1198.3  [cm-1]   --> A                  
     freq (  45-  45) =       1204.7  [cm-1]   --> A                  
     freq (  46-  46) =       1206.1  [cm-1]   --> A                  
     freq (  47-  47) =       1208.0  [cm-1]   --> A                  
     freq (  48-  48) =       1208.7  [cm-1]   --> A                  
     freq (  49-  49) =       1211.9  [cm-1]   --> A                  
     freq (  50-  50) =       1212.6  [cm-1]   --> A                  
     freq (  51-  51) =       2276.2  [cm-1]   --> A                  
     freq (  52-  52) =       2276.9  [cm-1]   --> A                  
     freq (  53-  53) =       2278.0  [cm-1]   --> A                  
     freq (  54-  54) =       2279.5  [cm-1]   --> A                  
     freq (  55-  55) =       2344.0  [cm-1]   --> A                  
     freq (  56-  56) =       2344.2  [cm-1]   --> A                  
     freq (  57-  57) =       2348.8  [cm-1]   --> A                  
     freq (  58-  58) =       2348.9  [cm-1]   --> A                  
     freq (  59-  59) =       2372.9  [cm-1]   --> A                  
     freq (  60-  60) =       2373.2  [cm-1]   --> A                  
     freq (  61-  61) =       2375.8  [cm-1]   --> A                  
     freq (  62-  62) =       2376.6  [cm-1]   --> A                  
     freq (  63-  63) =       2390.4  [cm-1]   --> A                  
     freq (  64-  64) =       2390.9  [cm-1]   --> A                  
     freq (  65-  65) =       2395.3  [cm-1]   --> A                  
     freq (  66-  66) =       2396.5  [cm-1]   --> A                  

     init_run     :      8.22s CPU      8.51s WALL (       7 calls)
     electrons    :   4764.08s CPU   4801.80s WALL (       7 calls)

     Called by init_run:
     wfcinit      :      0.00s CPU      0.00s WALL (       7 calls)
     potinit      :      1.00s CPU      1.12s WALL (       7 calls)
     hinit0       :      0.79s CPU      0.84s WALL (       7 calls)

     Called by electrons:
     c_bands      :   4764.08s CPU   4801.80s WALL (       7 calls)
     v_of_rho     :      0.93s CPU      1.02s WALL (       8 calls)
     newd         :      1.41s CPU      1.45s WALL (       8 calls)

     Called by c_bands:
     init_us_2    :   2328.59s CPU   2525.45s WALL (  444864 calls)
     cegterg      :   4365.83s CPU   4397.94s WALL (    2773 calls)

     Called by *egterg:
     cdiaghg      :    144.77s CPU    145.59s WALL (   32290 calls)
     h_psi        : 484429.21s CPU 489038.59s WALL ( 5603836 calls)
     s_psi        : 200114.10s CPU 201045.04s WALL (11515317 calls)
     g_psi        :     11.47s CPU     11.53s WALL (   30900 calls)

     Called by h_psi:
     h_psi:calbec :  85014.10s CPU  85513.35s WALL ( 5603836 calls)
     vloc_psi     : 299945.44s CPU 303596.54s WALL ( 5603836 calls)
     add_vuspsi   :  96988.02s CPU  97444.38s WALL ( 5603836 calls)

     General routines
     calbec       : 185032.26s CPU 186078.76s WALL (12191821 calls)
     fft          :    822.00s CPU    884.53s WALL (  102095 calls)
     ffts         :   1807.25s CPU   1840.32s WALL (   92718 calls)
     fftw         : 294989.87s CPU 298733.96s WALL (******** calls)
     interpolate  :     66.22s CPU     76.75s WALL (    7974 calls)
     davcio       :    830.33s CPU   1274.52s WALL ( 1910737 calls)

     Parallel routines

     PHONON       :  10d14h 6m CPU  10d16h37m WALL

     INITIALIZATION: 
     phq_setup    :      2.89s CPU      3.69s WALL (       8 calls)
     phq_init     :   3981.85s CPU   4021.04s WALL (       8 calls)

     phq_init     :   3981.85s CPU   4021.04s WALL (       8 calls)
     set_drhoc    :      0.10s CPU      0.11s WALL (      24 calls)
     init_vloc    :      0.10s CPU      0.11s WALL (       8 calls)
     init_us_1    :      0.18s CPU      0.23s WALL (       8 calls)
     init_us_2    :   2328.59s CPU   2525.45s WALL (  444864 calls)
     newd         :      1.41s CPU      1.45s WALL (       8 calls)
     dvanqq       :    165.92s CPU    168.06s WALL (       8 calls)
     drho         :   3561.24s CPU   3596.21s WALL (       8 calls)
     drhous       :   3236.00s CPU   3265.32s WALL (       8 calls)
     nldyntot     :     84.44s CPU     84.53s WALL (       8 calls)

     DYNAMICAL MATRIX:
     dynmat0      :    198.70s CPU    199.97s WALL (       8 calls)
     dynmat_us    :    153.54s CPU    154.70s WALL (       8 calls)
     addusdynmat  :      0.02s CPU      0.06s WALL (       8 calls)
     d2ionq       :     42.77s CPU     42.81s WALL (       8 calls)
     dynmatcc     :      2.23s CPU      2.29s WALL (       8 calls)
     phqscf       : 901682.61s CPU 910635.74s WALL (       8 calls)
     dynmatrix    :      0.85s CPU      0.98s WALL (       8 calls)

     phqscf       : 901682.61s CPU 910635.74s WALL (       8 calls)
     solve_linter : 895908.19s CPU 904727.90s WALL (     527 calls)
     sth_kernel   : 869494.91s CPU 877405.32s WALL (    3693 calls)
     h_prec       :    529.92s CPU    534.30s WALL (  341794 calls)
     apply_dpot_b :  18444.77s CPU  18885.55s WALL (  294813 calls)
     ortho        :  14674.35s CPU  14788.60s WALL (  342627 calls)
     cgsolve      : 802519.18s CPU 808802.56s WALL (  342627 calls)
     incdrhoscf   :  30046.74s CPU  30612.95s WALL (  342627 calls)
                                        0.00s GPU  (  342627 calls)
     addusddens   :   1287.67s CPU   1304.70s WALL (    4213 calls)
     dv_of_drho   :    358.71s CPU    391.26s WALL (    3717 calls)
     mix_pot      :     41.29s CPU    108.04s WALL (    3693 calls)
     drhodv       :   4272.93s CPU   4314.39s WALL (     527 calls)
     psymdvscf    :   1685.91s CPU   1740.24s WALL (    1742 calls)
     newdq        :   1532.70s CPU   1545.05s WALL (    3693 calls)
     adddvscf     :   1002.89s CPU   1022.30s WALL (  294813 calls)
     drhodvus     :     23.15s CPU     45.25s WALL (     527 calls)

     dvqpsi_us    :  23339.79s CPU  23440.29s WALL (   49434 calls)
                                        0.00s GPU  (   49434 calls)
     dvqpsi_us_on :  18506.47s CPU  18544.43s WALL (   49434 calls)

     add_vuspsi   :  96988.02s CPU  97444.38s WALL ( 5603836 calls)
     addusdbec    :   6681.05s CPU   6720.49s WALL (  390279 calls)

     drhodvus     :     23.15s CPU     45.25s WALL (     527 calls)

      General routines
     calbec       : 185032.26s CPU 186078.76s WALL (12191821 calls)
     fft          :    822.00s CPU    884.53s WALL (  102095 calls)
     ffts         :   1807.25s CPU   1840.32s WALL (   92718 calls)
     fftw         : 294989.87s CPU 298733.96s WALL (******** calls)
     davcio       :    830.33s CPU   1274.52s WALL ( 1910737 calls)
     write_rec    :     66.48s CPU    646.11s WALL (    4220 calls)

      Additional routines
     ch_psi       : 792521.93s CPU 798664.91s WALL ( 5568773 calls)
     last         : 210720.17s CPU 211830.58s WALL ( 5568773 calls)
     Hesh         :   1520.26s CPU   1536.49s WALL ( 5568773 calls)
     ch_psi_all_k : 209108.51s CPU 210211.06s WALL ( 5568773 calls)
                                        0.00s GPU  ( 5568773 calls)
     ch_psi_calbe :  82816.10s CPU  83183.65s WALL ( 5568773 calls)
                                        0.00s GPU  ( 5568773 calls)
     h_psi_bgrp   : 484481.25s CPU 489080.62s WALL ( 5603836 calls)
     h_psi        : 484429.21s CPU 489038.59s WALL ( 5603836 calls)
     h_psi:pot    : 482084.49s CPU 486654.25s WALL ( 5603836 calls)
     h_psi:calbec :  85014.10s CPU  85513.35s WALL ( 5603836 calls)
     s_psi_bgrp   : 202508.57s CPU 203404.01s WALL (11515317 calls)
     s_psi        : 200114.10s CPU 201045.04s WALL (11515317 calls)


     PHONON       :  10d14h 6m CPU  10d16h37m WALL


   This run was terminated on:   4:57:53  23Jul2024            

=------------------------------------------------------------------------------=
   JOB DONE.
=------------------------------------------------------------------------------=
