
     Program Q2R v.7.3.1 starts on 23Jul2024 at  4:57:54 

     This program is part of the open-source Quantum ESPRESSO suite
     for quantum simulation of materials; please cite
         "P. Giannozzi et al., J. Phys.:Condens. Matter 21 395502 (2009);
         "P. Giannozzi et al., J. Phys.:Condens. Matter 29 465901 (2017);
         "P. Giannozzi et al., J. Chem. Phys. 152 154105 (2020);
          URL http://www.quantum-espresso.org", 
     in publications or presentations arising from this work. More details at
     http://www.quantum-espresso.org/quote

     Parallel version (MPI), running on    24 processors

     MPI processes distributed on     1 nodes
     R & G space division:  proc/nbgrp/npool/nimage =      24
     71646 MiB available memory on the printing compute node when the environment starts


  reading grid info from file dyn0    

  reading force constants from file dyn1
 macroscopic fields = T
   3.18414   0.00000   0.00000
   0.00000   3.24589   0.00000
   0.00000   0.00000   3.37112
  na=            1
   2.51185  -0.04062   0.00000
   0.28806   2.52948   0.00000
   0.00000   0.00000   2.95358
  na=            2
   2.51185   0.04062   0.00000
  -0.28806   2.52948   0.00000
   0.00000   0.00000   2.95358
  na=            3
  -0.15023   0.03264  -0.00002
   0.17484  -0.04867   0.00005
   0.00001   0.00003  -0.20286
  na=            4
  -0.15023   0.03264   0.00002
   0.17484  -0.04867  -0.00005
  -0.00001  -0.00003  -0.20286
  na=            5
  -0.15023  -0.03264   0.00002
  -0.17484  -0.04867   0.00005
  -0.00001   0.00003  -0.20286
  na=            6
  -0.15023  -0.03264  -0.00002
  -0.17484  -0.04867  -0.00005
   0.00001  -0.00003  -0.20286
  na=            7
  -0.42429   0.13357  -0.00001
   0.14122  -0.25349   0.00001
  -0.00002   0.00001  -0.24631
  na=            8
  -0.42429   0.13357   0.00001
   0.14122  -0.25349  -0.00001
   0.00002  -0.00001  -0.24631
  na=            9
  -0.42429  -0.13357   0.00001
  -0.14122  -0.25349   0.00001
   0.00002   0.00001  -0.24631
  na=           10
  -0.42429  -0.13357  -0.00001
  -0.14122  -0.25349  -0.00001
  -0.00002  -0.00001  -0.24631
  na=           11
  -0.27633  -0.04521   0.00001
  -0.11313  -0.42803  -0.00004
   0.00000  -0.00003  -0.24377
  na=           12
  -0.27633  -0.04521  -0.00001
  -0.11313  -0.42803   0.00004
  -0.00000   0.00003  -0.24377
  na=           13
  -0.27633   0.04521  -0.00001
   0.11313  -0.42803  -0.00004
  -0.00000  -0.00003  -0.24377
  na=           14
  -0.27633   0.04521   0.00001
   0.11313  -0.42803   0.00004
   0.00000   0.00003  -0.24377
  na=           15
  -0.20271   0.14466   0.05786
   0.09560  -0.26674  -0.09142
   0.01827  -0.11005  -0.39170
  na=           16
  -0.20271   0.14466  -0.05786
   0.09560  -0.26674   0.09142
  -0.01827   0.11005  -0.39170
  na=           17
  -0.20271  -0.14466  -0.05786
  -0.09560  -0.26674  -0.09142
  -0.01827  -0.11005  -0.39170
  na=           18
  -0.20271  -0.14466   0.05786
  -0.09560  -0.26674   0.09142
   0.01827   0.11005  -0.39170
  na=           19
  -0.20267   0.14463   0.05782
   0.09558  -0.26675  -0.09143
   0.01824  -0.11004  -0.39176
  na=           20
  -0.20267   0.14463  -0.05782
   0.09558  -0.26675   0.09143
  -0.01824   0.11004  -0.39176
  na=           21
  -0.20267  -0.14463  -0.05782
  -0.09558  -0.26675  -0.09143
  -0.01824  -0.11004  -0.39176
  na=           22
  -0.20267  -0.14463   0.05782
  -0.09558  -0.26675   0.09143
   0.01824   0.11004  -0.39176
  Norm of the difference between old and new effective charges:    0.00099608586743823199
  nqs=            1
 q=   0.00000000  0.00000000  0.00000000
  reading force constants from file dyn2
  nqs=            2
 q=   0.00000000  0.00000000  0.47569122
 q=   0.00000000  0.00000000 -0.47569122
  reading force constants from file dyn3
  nqs=            2
 q=   0.00000000  0.32265109  0.00000000
 q=   0.00000000 -0.32265109  0.00000000
  reading force constants from file dyn4
  nqs=            4
 q=   0.00000000  0.32265109  0.47569122
 q=   0.00000000  0.32265109 -0.47569122
 q=   0.00000000 -0.32265109 -0.47569122
 q=   0.00000000 -0.32265109  0.47569122
  reading force constants from file dyn5
  nqs=            2
 q=   0.33333333  0.00000000  0.00000000
 q=  -0.33333333  0.00000000  0.00000000
  reading force constants from file dyn6
  nqs=            4
 q=   0.33333333  0.00000000  0.47569122
 q=   0.33333333  0.00000000 -0.47569122
 q=  -0.33333333  0.00000000 -0.47569122
 q=  -0.33333333  0.00000000  0.47569122
  reading force constants from file dyn7
  nqs=            4
 q=   0.33333333  0.32265109  0.00000000
 q=   0.33333333 -0.32265109  0.00000000
 q=  -0.33333333  0.32265109  0.00000000
 q=  -0.33333333 -0.32265109  0.00000000
  reading force constants from file dyn8
  nqs=            8
 q=   0.33333333  0.32265109  0.47569122
 q=  -0.33333333 -0.32265109 -0.47569122
 q=   0.33333333 -0.32265109 -0.47569122
 q=  -0.33333333  0.32265109  0.47569122
 q=  -0.33333333  0.32265109 -0.47569122
 q=   0.33333333 -0.32265109  0.47569122
 q=  -0.33333333 -0.32265109  0.47569122
 q=   0.33333333  0.32265109 -0.47569122

      q-space grid ok, #points =   27

      fft-check success (sum of imaginary terms < 10^-12)

     Q2R          :      3.04s CPU      3.10s WALL


   This run was terminated on:   4:57:57  23Jul2024            

=------------------------------------------------------------------------------=
   JOB DONE.
=------------------------------------------------------------------------------=
