
     Program PWSCF v.7.3.1 starts on 12Aug2024 at 11:12:55 

     This program is part of the open-source Quantum ESPRESSO suite
     for quantum simulation of materials; please cite
         "P. Giannozzi et al., J. Phys.:Condens. Matter 21 395502 (2009);
         "P. Giannozzi et al., J. Phys.:Condens. Matter 29 465901 (2017);
         "P. Giannozzi et al., J. Chem. Phys. 152 154105 (2020);
          URL http://www.quantum-espresso.org", 
     in publications or presentations arising from this work. More details at
     http://www.quantum-espresso.org/quote

     Parallel version (MPI), running on    24 processors

     MPI processes distributed on     1 nodes
     93376 MiB available memory on the printing compute node when the environment starts

     Waiting for input...
     Reading input from standard input

     Current dimensions of program PWSCF are:
     Max number of different atomic species (ntypx) = 10
     Max number of k-points (npk) =  40000
     Max angular momentum in pseudopotentials (lmaxx) =  4

     R & G space division:  proc/nbgrp/npool/nimage =      24
     Subspace diagonalization in iterative solution of the eigenvalue problem:
     a serial algorithm will be used


     Parallelization info
     --------------------
     sticks:   dense  smooth     PW     G-vecs:    dense   smooth      PW
     Min         480     240     65                25100     8872    1249
     Max         481     241     66                25103     8874    1251
     Sum       11533    5761   1561               602427   212943   29989

     Using Slab Decomposition


     Title: 
     pre-ph                                                                     


     bravais-lattice index     =            8
     lattice parameter (alat)  =      13.5073  a.u.
     unit-cell volume          =    1576.8022 (a.u.)^3
     number of atoms/cell      =           22
     number of atomic types    =            3
     number of electrons       =        48.00
     number of Kohn-Sham states=           24
     kinetic-energy cutoff     =     100.0000  Ry
     charge density cutoff     =     800.0000  Ry
     scf convergence threshold =      1.0E-10
     mixing beta               =       0.7000
     number of iterations used =            8  plain     mixing
     Exchange-correlation= PBESOL
                           (   1   4  10   8   0   0   0)

     celldm(1)=  13.507316  celldm(2)=   0.993106  celldm(3)=   0.644280
     celldm(4)=   0.000000  celldm(5)=   0.000000  celldm(6)=   0.000000

     crystal axes: (cart. coord. in units of alat)
               a(1) = (   1.000000   0.000000   0.000000 )  
               a(2) = (   0.000000   0.993106   0.000000 )  
               a(3) = (   0.000000   0.000000   0.644280 )  

     reciprocal axes: (cart. coord. in units 2 pi/alat)
               b(1) = (  1.000000  0.000000  0.000000 )  
               b(2) = (  0.000000  1.006942  0.000000 )  
               b(3) = (  0.000000  0.000000  1.552121 )  


     PseudoPot. # 1 for B  read from file:
     /home/mehlhorn/pseudos/b_pbesol_v1.4.uspp.F.UPF
     MD5 check sum: 369b69bef2c3aeed4453bd8b804fd6a8
     Pseudo is Ultrasoft + core correction, Zval =  3.0
     Generated by new atomic code, or converted to UPF format
     Using radial grid of  781 points,  4 beta functions with: 
                l(1) =   0
                l(2) =   0
                l(3) =   1
                l(4) =   1
     Q(r) pseudized with  8 coefficients,  rinner =    1.100   1.100   1.100


     PseudoPot. # 2 for Ba read from file:
     /home/mehlhorn/pseudos/Ba.nc.z_10.oncvpsp4.dojo.v4-sp.upf
     MD5 check sum: c10ed334bb677c0554edec7181ce9143
     Pseudo is Norm-conserving + core correction, Zval = 10.0
     Generated using ONCVPSP code by D. R. Hamann
     Using radial grid of 1938 points,  8 beta functions with: 
                l(1) =   0
                l(2) =   0
                l(3) =   1
                l(4) =   1
                l(5) =   2
                l(6) =   2
                l(7) =   3
                l(8) =   3

     PseudoPot. # 3 for H  read from file:
     /home/mehlhorn/pseudos/H_ONCV_PBEsol-1.0.upf
     MD5 check sum: 398ef8f67c0a7342c05c87c5e19ea467
     Pseudo is Norm-conserving, Zval =  1.0
     Generated using ONCVPSP code by D. R. Hamann
     Using radial grid of 1180 points,  2 beta functions with: 
                l(1) =   0
                l(2) =   0

     atomic species   valence    mass     pseudopotential
     B                 3.00    10.81100     B ( 1.00)
     Ba               10.00   137.32700     Ba( 1.00)
     H                 1.00     1.00794     H ( 1.00)

      4 Sym. Ops. (no inversion) found ( 2 have fractional translation)



   Cartesian axes

     site n.     atom                  positions (alat units)
         1        Ba     tau(   1) = (   0.5000000   0.4965530   0.3221415  )
         2        Ba     tau(   2) = (   0.0000000   0.0000000   0.6442778  )
         3        B      tau(   3) = (   0.6337457   0.2583049   0.0000089  )
         4        B      tau(   4) = (   0.3662543   0.7348012   0.0000089  )
         5        B      tau(   5) = (   0.1337457   0.2382482   0.3221309  )
         6        B      tau(   6) = (   0.8662543   0.7548579   0.3221309  )
         7        H      tau(   7) = (   0.4627455   0.2815041  -0.0000021  )
         8        H      tau(   8) = (   0.5372545   0.7116020  -0.0000021  )
         9        H      tau(   9) = (   0.9627455   0.2150490   0.3221418  )
        10        H      tau(  10) = (   0.0372545   0.7780571   0.3221418  )
        11        H      tau(  11) = (   0.7140244   0.4116769   0.0000077  )
        12        H      tau(  12) = (   0.2859756   0.5814292   0.0000077  )
        13        H      tau(  13) = (   0.2140244   0.0848762   0.3221321  )
        14        H      tau(  14) = (   0.7859756   0.9082299   0.3221321  )
        15        H      tau(  15) = (   0.6757239   0.1716312   0.5016492  )
        16        H      tau(  16) = (   0.3242761   0.8214749   0.5016492  )
        17        H      tau(  17) = (   0.1757239   0.3249219   0.4647702  )
        18        H      tau(  18) = (   0.8242761   0.6681842   0.4647702  )
        19        H      tau(  19) = (   0.3242793   0.8214758   0.1426501  )
        20        H      tau(  20) = (   0.6757207   0.1716302   0.1426501  )
        21        H      tau(  21) = (   0.8242793   0.6681833   0.1794897  )
        22        H      tau(  22) = (   0.1757207   0.3249228   0.1794897  )

     number of k points=    27
                       cart. coord. in units 2pi/alat
        k(    1) = (   0.0000000   0.0000000   0.0000000), wk =   0.0160000
        k(    2) = (   0.0000000   0.0000000   0.3104242), wk =   0.0320000
        k(    3) = (   0.0000000   0.0000000   0.6208485), wk =   0.0320000
        k(    4) = (   0.0000000   0.2013884   0.0000000), wk =   0.0320000
        k(    5) = (   0.0000000   0.2013884   0.3104242), wk =   0.0640000
        k(    6) = (   0.0000000   0.2013884   0.6208485), wk =   0.0640000
        k(    7) = (   0.0000000   0.4027767   0.0000000), wk =   0.0320000
        k(    8) = (   0.0000000   0.4027767   0.3104242), wk =   0.0640000
        k(    9) = (   0.0000000   0.4027767   0.6208485), wk =   0.0640000
        k(   10) = (   0.2000000   0.0000000   0.0000000), wk =   0.0320000
        k(   11) = (   0.2000000   0.0000000   0.3104242), wk =   0.0640000
        k(   12) = (   0.2000000   0.0000000   0.6208485), wk =   0.0640000
        k(   13) = (   0.2000000   0.2013884   0.0000000), wk =   0.0640000
        k(   14) = (   0.2000000   0.2013884   0.3104242), wk =   0.1280000
        k(   15) = (   0.2000000   0.2013884   0.6208485), wk =   0.1280000
        k(   16) = (   0.2000000   0.4027767   0.0000000), wk =   0.0640000
        k(   17) = (   0.2000000   0.4027767   0.3104242), wk =   0.1280000
        k(   18) = (   0.2000000   0.4027767   0.6208485), wk =   0.1280000
        k(   19) = (   0.4000000   0.0000000   0.0000000), wk =   0.0320000
        k(   20) = (   0.4000000   0.0000000   0.3104242), wk =   0.0640000
        k(   21) = (   0.4000000   0.0000000   0.6208485), wk =   0.0640000
        k(   22) = (   0.4000000   0.2013884   0.0000000), wk =   0.0640000
        k(   23) = (   0.4000000   0.2013884   0.3104242), wk =   0.1280000
        k(   24) = (   0.4000000   0.2013884   0.6208485), wk =   0.1280000
        k(   25) = (   0.4000000   0.4027767   0.0000000), wk =   0.0640000
        k(   26) = (   0.4000000   0.4027767   0.3104242), wk =   0.1280000
        k(   27) = (   0.4000000   0.4027767   0.6208485), wk =   0.1280000

     Dense  grid:   602427 G-vectors     FFT dimensions: ( 128, 128,  80)

     Smooth grid:   212943 G-vectors     FFT dimensions: (  90,  90,  60)

     Estimated max dynamical RAM per process >      71.88 MB

     Estimated total dynamical RAM >       1.68 GB

     Initial potential from superposition of free atoms

     starting charge      47.9682, renormalised to      48.0000
     Starting wfcs are   42 randomized atomic wfcs

     total cpu time spent up to now is       11.7 secs

     Self-consistent Calculation

     iteration #  1     ecut=   100.00 Ry     beta= 0.70
     Davidson diagonalization with overlap
     ethr =  1.00E-02,  avg # of iterations =  2.0

     total cpu time spent up to now is       28.7 secs

     total energy              =    -155.91045554 Ry
     estimated scf accuracy    <       2.15950098 Ry

     iteration #  2     ecut=   100.00 Ry     beta= 0.70
     Davidson diagonalization with overlap
     ethr =  4.50E-03,  avg # of iterations =  2.0

     total cpu time spent up to now is       45.0 secs

     total energy              =    -156.40211287 Ry
     estimated scf accuracy    <       0.37754818 Ry

     iteration #  3     ecut=   100.00 Ry     beta= 0.70
     Davidson diagonalization with overlap
     ethr =  7.87E-04,  avg # of iterations =  2.0

     total cpu time spent up to now is       61.3 secs

     total energy              =    -156.46582324 Ry
     estimated scf accuracy    <       0.00490642 Ry

     iteration #  4     ecut=   100.00 Ry     beta= 0.70
     Davidson diagonalization with overlap
     ethr =  1.02E-05,  avg # of iterations =  5.1

     total cpu time spent up to now is       84.8 secs

     total energy              =    -156.46886786 Ry
     estimated scf accuracy    <       0.00180496 Ry

     iteration #  5     ecut=   100.00 Ry     beta= 0.70
     Davidson diagonalization with overlap
     ethr =  3.76E-06,  avg # of iterations =  3.4

     total cpu time spent up to now is      101.7 secs

     total energy              =    -156.46949157 Ry
     estimated scf accuracy    <       0.00019328 Ry

     iteration #  6     ecut=   100.00 Ry     beta= 0.70
     Davidson diagonalization with overlap
     ethr =  4.03E-07,  avg # of iterations =  4.0

     total cpu time spent up to now is      120.5 secs

     total energy              =    -156.46956637 Ry
     estimated scf accuracy    <       0.00000133 Ry

     iteration #  7     ecut=   100.00 Ry     beta= 0.70
     Davidson diagonalization with overlap
     ethr =  2.78E-09,  avg # of iterations = 10.4

     total cpu time spent up to now is      163.2 secs

     total energy              =    -156.46957833 Ry
     estimated scf accuracy    <       0.00000095 Ry

     iteration #  8     ecut=   100.00 Ry     beta= 0.70
     Davidson diagonalization with overlap
     ethr =  1.97E-09,  avg # of iterations =  2.0

     total cpu time spent up to now is      178.6 secs

     total energy              =    -156.46957837 Ry
     estimated scf accuracy    <       0.00000011 Ry

     iteration #  9     ecut=   100.00 Ry     beta= 0.70
     Davidson diagonalization with overlap
     ethr =  2.33E-10,  avg # of iterations =  4.8

     total cpu time spent up to now is      198.8 secs

     total energy              =    -156.46957842 Ry
     estimated scf accuracy    <       0.00000002 Ry

     iteration # 10     ecut=   100.00 Ry     beta= 0.70
     Davidson diagonalization with overlap
     ethr =  4.71E-11,  avg # of iterations =  3.4

     total cpu time spent up to now is      216.0 secs

     total energy              =    -156.46957843 Ry
     estimated scf accuracy    <          1.5E-10 Ry

     iteration # 11     ecut=   100.00 Ry     beta= 0.70
     Davidson diagonalization with overlap
     ethr =  3.11E-13,  avg # of iterations =  9.0

     total cpu time spent up to now is      256.2 secs

     total energy              =    -156.46957843 Ry
     estimated scf accuracy    <          1.3E-10 Ry

     iteration # 12     ecut=   100.00 Ry     beta= 0.70
     Davidson diagonalization with overlap
     ethr =  2.75E-13,  avg # of iterations =  2.1

     total cpu time spent up to now is      272.6 secs

     End of self-consistent calculation

          k = 0.0000 0.0000 0.0000 ( 26607 PWs)   bands (ev):

   -24.6330 -24.6276 -10.1196 -10.0786  -9.8882  -9.8583  -9.7969  -9.7510
    -6.5045  -5.6810  -5.1474  -5.0876  -2.2421  -1.2854  -1.2202  -0.9382
    -0.9149  -0.7167  -0.6613  -0.4722  -0.2220  -0.0028   0.0662   0.0673

          k = 0.0000 0.0000 0.3104 ( 26660 PWs)   bands (ev):

   -24.6277 -24.6233 -10.0599 -10.0270  -9.9822  -9.9581  -9.8743  -9.8515
    -6.1635  -5.4692  -5.2690  -5.2222  -1.9493  -1.6306  -1.3815  -1.0918
    -0.8426  -0.7826  -0.5333  -0.3991  -0.2363  -0.0886  -0.0852   0.0097

          k = 0.0000 0.0000 0.6208 ( 26642 PWs)   bands (ev):

   -24.6185 -24.6168 -10.2453 -10.2409  -9.9390  -9.9233  -9.8692  -9.8580
    -5.5389  -5.4697  -5.4533  -5.2443  -1.8375  -1.7311  -1.6538  -1.3825
    -0.8139  -0.7452  -0.4811  -0.3525  -0.2513  -0.1973  -0.1290  -0.0736

          k = 0.0000 0.2014 0.0000 ( 26677 PWs)   bands (ev):

   -24.6325 -24.6281 -10.1046 -10.0634  -9.9102  -9.8772  -9.7925  -9.7553
    -6.4056  -5.6780  -5.2567  -5.1326  -2.0789  -1.4309  -1.2822  -0.7626
    -0.7242  -0.7200  -0.6785  -0.4404  -0.2409  -0.1716   0.0075   0.0094

          k = 0.0000 0.2014 0.3104 ( 26639 PWs)   bands (ev):

   -24.6272 -24.6237 -10.0576 -10.0138  -9.9761  -9.9712  -9.8752  -9.8636
    -6.0885  -5.4505  -5.3679  -5.2488  -1.8409  -1.6532  -1.4533  -0.9304
    -0.8030  -0.7493  -0.6772  -0.3473  -0.2346  -0.1026  -0.0983  -0.0815

          k = 0.0000 0.2014 0.6208 ( 26637 PWs)   bands (ev):

   -24.6183 -24.6170 -10.2510 -10.2470  -9.9265  -9.9160  -9.8695  -9.8623
    -5.6569  -5.5776  -5.3075  -5.1590  -1.8883  -1.8536  -1.5346  -1.3199
    -0.7575  -0.6228  -0.4929  -0.3501  -0.2763  -0.2687  -0.1355  -0.1329

          k = 0.0000 0.4028 0.0000 ( 26592 PWs)   bands (ev):

   -24.6311 -24.6294 -10.0651 -10.0377  -9.9474  -9.9226  -9.7809  -9.7668
    -6.1426  -5.8223  -5.3406  -5.2431  -1.7938  -1.6163  -1.1412  -0.7210
    -0.7065  -0.6871  -0.4632  -0.4457  -0.3699  -0.2948  -0.1325  -0.0987

          k = 0.0000 0.4028 0.3104 ( 26628 PWs)   bands (ev):

   -24.6261 -24.6248 -10.0433 -10.0126  -9.9813  -9.9588  -9.8855  -9.8833
    -5.8852  -5.6152  -5.3895  -5.3148  -1.7100  -1.6884  -1.3455  -1.0076
    -0.7380  -0.6919  -0.5950  -0.3846  -0.2822  -0.2796  -0.0971  -0.0893

          k = 0.0000 0.4028 0.6208 ( 26645 PWs)   bands (ev):

   -24.6179 -24.6174 -10.2590 -10.2572  -9.9033  -9.9013  -9.8735  -9.8726
    -5.7309  -5.7001  -5.1598  -5.1019  -1.9630  -1.9620  -1.3494  -1.2467
    -0.6444  -0.5289  -0.4644  -0.4505  -0.3184  -0.2903  -0.2302  -0.1551

          k = 0.2000 0.0000 0.0000 ( 26631 PWs)   bands (ev):

   -24.6325 -24.6281 -10.1014 -10.0656  -9.9076  -9.8816  -9.7925  -9.7553
    -6.4107  -5.7135  -5.1691  -5.1620  -2.1113  -1.2201  -1.2111  -1.0989
    -0.6886  -0.6753  -0.6538  -0.4784  -0.2666  -0.1818  -0.0187   0.0206

          k = 0.2000 0.0000 0.3104 ( 26660 PWs)   bands (ev):

   -24.6272 -24.6237 -10.0451 -10.0326  -9.9731  -9.9679  -9.8846  -9.8556
    -6.0858  -5.4827  -5.2914  -5.2848  -1.8627  -1.6040  -1.4473  -0.9783
    -0.8286  -0.7488  -0.6219  -0.3590  -0.3479  -0.1055  -0.0690  -0.0327

          k = 0.2000 0.0000 0.6208 ( 26629 PWs)   bands (ev):

   -24.6183 -24.6170 -10.2520 -10.2481  -9.9306  -9.9118  -9.8734  -9.8587
    -5.6018  -5.5187  -5.3724  -5.2004  -2.0103  -1.8908  -1.4780  -1.2401
    -0.7235  -0.6507  -0.4953  -0.3947  -0.2468  -0.2211  -0.1746  -0.0884

          k = 0.2000 0.2014 0.0000 ( 26631 PWs)   bands (ev):

   -24.6321 -24.6285 -10.1109 -10.0400  -9.9439  -9.8669  -9.7889  -9.7588
    -6.3344  -5.7287  -5.2801  -5.1486  -1.9797  -1.4207  -1.2270  -0.8866
    -0.7278  -0.6654  -0.5238  -0.4353  -0.3438  -0.2596  -0.0953   0.0180

          k = 0.2000 0.2014 0.3104 ( 26638 PWs)   bands (ev):

   -24.6269 -24.6240 -10.0541 -10.0146  -9.9936  -9.9559  -9.8865  -9.8570
    -6.0241  -5.4831  -5.3883  -5.2708  -1.7842  -1.6273  -1.4838  -0.8918
    -0.8507  -0.7370  -0.6057  -0.3749  -0.3207  -0.1410  -0.1036  -0.0423

          k = 0.2000 0.2014 0.6208 ( 26632 PWs)   bands (ev):

   -24.6182 -24.6171 -10.2573 -10.2446  -9.9357  -9.8995  -9.8757  -9.8612
    -5.6792  -5.5079  -5.3581  -5.1442  -2.0262  -1.8818  -1.4728  -1.2832
    -0.6641  -0.5850  -0.4853  -0.3626  -0.3272  -0.2289  -0.1943  -0.0709

          k = 0.2000 0.4028 0.0000 ( 26622 PWs)   bands (ev):

   -24.6309 -24.6296 -10.0979 -10.0569  -9.9309  -9.8848  -9.7795  -9.7680
    -6.1292  -5.8744  -5.3156  -5.2277  -1.7403  -1.5851  -1.1411  -0.7635
    -0.7490  -0.7194  -0.5607  -0.3444  -0.3371  -0.2764  -0.1980  -0.0740

          k = 0.2000 0.4028 0.3104 ( 26595 PWs)   bands (ev):

   -24.6260 -24.6249 -10.0512 -10.0280  -9.9832  -9.9557  -9.8822  -9.8657
    -5.8575  -5.6384  -5.3850  -5.3194  -1.6973  -1.6685  -1.3767  -1.0961
    -0.7208  -0.6376  -0.5813  -0.3989  -0.2804  -0.2051  -0.1341  -0.0977

          k = 0.2000 0.4028 0.6208 ( 26646 PWs)   bands (ev):

   -24.6178 -24.6174 -10.2566 -10.2490  -9.9261  -9.9049  -9.8717  -9.8647
    -5.7043  -5.6351  -5.2143  -5.1296  -2.0134  -1.9369  -1.4121  -1.3245
    -0.6465  -0.5568  -0.4223  -0.3236  -0.3229  -0.2412  -0.2132  -0.1162

          k = 0.4000 0.0000 0.0000 ( 26605 PWs)   bands (ev):

   -24.6311 -24.6294 -10.0569 -10.0377  -9.9476  -9.9326  -9.7810  -9.7668
    -6.1666  -5.8806  -5.2408  -5.2182  -1.8199  -1.5082  -0.9959  -0.7910
    -0.6612  -0.6387  -0.6364  -0.4641  -0.4585  -0.3726  -0.2043  -0.1036

          k = 0.4000 0.0000 0.3104 ( 26628 PWs)   bands (ev):

   -24.6261 -24.6248 -10.0282 -10.0098 -10.0015  -9.9678  -9.8903  -9.8709
    -5.8799  -5.6263  -5.3494  -5.3217  -1.7189  -1.5852  -1.4021  -1.0426
    -0.7573  -0.6538  -0.6502  -0.5253  -0.2878  -0.1915  -0.0967  -0.0871

          k = 0.4000 0.0000 0.6208 ( 26631 PWs)   bands (ev):

   -24.6179 -24.6174 -10.2615 -10.2599  -9.9119  -9.8971  -9.8777  -9.8647
    -5.6354  -5.6040  -5.2506  -5.1824  -2.1344  -2.0823  -1.2543  -1.1239
    -0.6261  -0.5535  -0.4828  -0.3980  -0.3715  -0.1937  -0.1673  -0.1654

          k = 0.4000 0.2014 0.0000 ( 26612 PWs)   bands (ev):

   -24.6309 -24.6296 -10.0960 -10.0548  -9.9337  -9.8873  -9.7796  -9.7681
    -6.1447  -5.9061  -5.2667  -5.2033  -1.7539  -1.5267  -1.0481  -0.7924
    -0.7153  -0.6810  -0.6561  -0.4537  -0.3895  -0.3155  -0.2040  -0.0654

          k = 0.4000 0.2014 0.3104 ( 26598 PWs)   bands (ev):

   -24.6260 -24.6249 -10.0466 -10.0254  -9.9918  -9.9610  -9.8811  -9.8624
    -5.8547  -5.6434  -5.3667  -5.3185  -1.6973  -1.5945  -1.4345  -1.1281
    -0.6955  -0.6506  -0.5832  -0.4584  -0.2954  -0.2044  -0.1230  -0.0863

          k = 0.4000 0.2014 0.6208 ( 26637 PWs)   bands (ev):

   -24.6178 -24.6174 -10.2582 -10.2507  -9.9276  -9.9062  -9.8711  -9.8629
    -5.6466  -5.5535  -5.2900  -5.1804  -2.1072  -2.0449  -1.3180  -1.2558
    -0.6152  -0.5476  -0.4669  -0.4132  -0.2880  -0.2154  -0.1542  -0.0714

          k = 0.4000 0.4028 0.0000 ( 26594 PWs)   bands (ev):

   -24.6305 -24.6300 -10.1193 -10.1025  -9.8827  -9.8624  -9.7759  -9.7715
    -6.0783  -5.9833  -5.2600  -5.2223  -1.6247  -1.5518  -1.1087  -0.9476
    -0.7719  -0.7568  -0.5468  -0.3903  -0.2922  -0.2636  -0.1747  -0.0904

          k = 0.4000 0.4028 0.3104 ( 26613 PWs)   bands (ev):

   -24.6257 -24.6252 -10.0607 -10.0522  -9.9752  -9.9628  -9.8626  -9.8543
    -5.7873  -5.7036  -5.3650  -5.3373  -1.6602  -1.6190  -1.4262  -1.2940
    -0.6088  -0.5884  -0.4917  -0.3920  -0.2846  -0.2348  -0.1684  -0.1056

          k = 0.4000 0.4028 0.6208 ( 26647 PWs)   bands (ev):

   -24.6177 -24.6175 -10.2464 -10.2413  -9.9402  -9.9291  -9.8640  -9.8620
    -5.6097  -5.5465  -5.2902  -5.2213  -2.0255  -1.9792  -1.4802  -1.4400
    -0.5986  -0.5512  -0.3670  -0.3495  -0.2425  -0.2397  -0.0894  -0.0476

     highest occupied level (ev):     0.0673

!    total energy              =    -156.46957843 Ry
     estimated scf accuracy    <          1.4E-12 Ry

     The total energy is the sum of the following terms:
     one-electron contribution =     -34.38043726 Ry
     hartree contribution      =      30.33103648 Ry
     xc contribution           =     -49.05984013 Ry
     ewald contribution        =    -103.36033752 Ry

     convergence has been achieved in  12 iterations

     Writing all to output data dir ./pwscf.save/ :
     XML data file, charge density, pseudopotentials, collected wavefunctions

     init_run     :     10.34s CPU     11.36s WALL (       1 calls)
     electrons    :    258.89s CPU    260.92s WALL (       1 calls)

     Called by init_run:
     wfcinit      :      7.86s CPU      7.92s WALL (       1 calls)
     potinit      :      0.62s CPU      1.05s WALL (       1 calls)
     hinit0       :      0.87s CPU      1.37s WALL (       1 calls)

     Called by electrons:
     c_bands      :    231.18s CPU    232.69s WALL (      12 calls)
     sum_band     :     23.43s CPU     23.79s WALL (      12 calls)
     v_of_rho     :      1.64s CPU      1.73s WALL (      13 calls)
     newd         :      2.49s CPU      2.52s WALL (      13 calls)
     mix_rho      :      0.26s CPU      0.27s WALL (      12 calls)

     Called by c_bands:
     init_us_2    :      4.43s CPU      4.47s WALL (     675 calls)
     cegterg      :    208.80s CPU    210.23s WALL (     324 calls)

     Called by *egterg:
     cdiaghg      :      3.30s CPU      3.34s WALL (    1682 calls)
     h_psi        :    147.02s CPU    148.18s WALL (    1709 calls)
     s_psi        :     30.40s CPU     30.52s WALL (    1709 calls)
     g_psi        :      0.54s CPU      0.54s WALL (    1358 calls)

     Called by h_psi:
     h_psi:calbec :     27.43s CPU     27.56s WALL (    1709 calls)
     vloc_psi     :     88.66s CPU     89.57s WALL (    1709 calls)
     add_vuspsi   :     30.45s CPU     30.58s WALL (    1709 calls)

     General routines
     calbec       :     34.31s CPU     34.49s WALL (    2033 calls)
     fft          :      1.57s CPU      2.16s WALL (     167 calls)
     ffts         :      0.51s CPU      0.93s WALL (      25 calls)
     fftw         :     87.09s CPU     87.99s WALL (   68138 calls)
     interpolate  :      0.57s CPU      0.99s WALL (      13 calls)

     Parallel routines

     PWSCF        :   4m30.12s CPU   4m33.97s WALL


   This run was terminated on:  11:17:29  12Aug2024            

=------------------------------------------------------------------------------=
   JOB DONE.
=------------------------------------------------------------------------------=
