
     Program PWSCF v.7.3.1 starts on  9Jul2024 at 11: 6:44 

     This program is part of the open-source Quantum ESPRESSO suite
     for quantum simulation of materials; please cite
         "P. Giannozzi et al., J. Phys.:Condens. Matter 21 395502 (2009);
         "P. Giannozzi et al., J. Phys.:Condens. Matter 29 465901 (2017);
         "P. Giannozzi et al., J. Chem. Phys. 152 154105 (2020);
          URL http://www.quantum-espresso.org", 
     in publications or presentations arising from this work. More details at
     http://www.quantum-espresso.org/quote

     Parallel version (MPI), running on    24 processors

     MPI processes distributed on     1 nodes
     127646 MiB available memory on the printing compute node when the environment starts

     Waiting for input...
     Reading input from standard input

     Current dimensions of program PWSCF are:
     Max number of different atomic species (ntypx) = 10
     Max number of k-points (npk) =  40000
     Max angular momentum in pseudopotentials (lmaxx) =  4

     R & G space division:  proc/nbgrp/npool/nimage =      24
     Subspace diagonalization in iterative solution of the eigenvalue problem:
     a serial algorithm will be used


     Parallelization info
     --------------------
     sticks:   dense  smooth     PW     G-vecs:    dense   smooth      PW
     Min         433     216     59                22723     8030    1162
     Max         434     217     61                22726     8033    1164
     Sum       10401    5203   1441               545363   192749   27913

     Using Slab Decomposition


     Title: 
     InitGeomOpt                                                                


     bravais-lattice index     =            8
     lattice parameter (alat)  =      12.6195  a.u.
     unit-cell volume          =    1427.0541 (a.u.)^3
     number of atoms/cell      =           22
     number of atomic types    =            3
     number of electrons       =        48.00
     number of Kohn-Sham states=           24
     kinetic-energy cutoff     =     100.0000  Ry
     charge density cutoff     =     800.0000  Ry
     scf convergence threshold =      1.0E-10
     mixing beta               =       0.7000
     number of iterations used =            8  plain     mixing
     energy convergence thresh.=      1.0E-05
     force convergence thresh. =      1.0E-05
     press convergence thresh. =      1.0E-01
     Exchange-correlation= PBESOL
                           (   1   4  10   8   0   0   0)
     nstep                     =           50


     celldm(1)=  12.619534  celldm(2)=   1.025561  celldm(3)=   0.692387
     celldm(4)=   0.000000  celldm(5)=   0.000000  celldm(6)=   0.000000

     crystal axes: (cart. coord. in units of alat)
               a(1) = (   1.000000   0.000000   0.000000 )  
               a(2) = (   0.000000   1.025561   0.000000 )  
               a(3) = (   0.000000   0.000000   0.692387 )  

     reciprocal axes: (cart. coord. in units 2 pi/alat)
               b(1) = (  1.000000  0.000000  0.000000 )  
               b(2) = (  0.000000  0.975076  0.000000 )  
               b(3) = (  0.000000  0.000000  1.444279 )  


     PseudoPot. # 1 for B  read from file:
     /home/mehlhorn/pseudos/b_pbesol_v1.4.uspp.F.UPF
     MD5 check sum: 369b69bef2c3aeed4453bd8b804fd6a8
     Pseudo is Ultrasoft + core correction, Zval =  3.0
     Generated by new atomic code, or converted to UPF format
     Using radial grid of  781 points,  4 beta functions with: 
                l(1) =   0
                l(2) =   0
                l(3) =   1
                l(4) =   1
     Q(r) pseudized with  8 coefficients,  rinner =    1.100   1.100   1.100


     PseudoPot. # 2 for Ba read from file:
     /home/mehlhorn/pseudos/Ba.nc.z_10.oncvpsp4.dojo.v4-sp.upf
     MD5 check sum: c10ed334bb677c0554edec7181ce9143
     Pseudo is Norm-conserving + core correction, Zval = 10.0
     Generated using ONCVPSP code by D. R. Hamann
     Using radial grid of 1938 points,  8 beta functions with: 
                l(1) =   0
                l(2) =   0
                l(3) =   1
                l(4) =   1
                l(5) =   2
                l(6) =   2
                l(7) =   3
                l(8) =   3

     PseudoPot. # 3 for H  read from file:
     /home/mehlhorn/pseudos/H_ONCV_PBEsol-1.0.upf
     MD5 check sum: 398ef8f67c0a7342c05c87c5e19ea467
     Pseudo is Norm-conserving, Zval =  1.0
     Generated using ONCVPSP code by D. R. Hamann
     Using radial grid of 1180 points,  2 beta functions with: 
                l(1) =   0
                l(2) =   0

     atomic species   valence    mass     pseudopotential
     B                 3.00    10.81100     B ( 1.00)
     Ba               10.00   137.32700     Ba( 1.00)
     H                 1.00     1.00794     H ( 1.00)

      4 Sym. Ops. (no inversion) found ( 2 have fractional translation)



   Cartesian axes

     site n.     atom                  positions (alat units)
         1        Ba     tau(   1) = (   0.5000000   0.5127805   0.3462357  )
         2        Ba     tau(   2) = (   0.0000000   0.0000000   0.6923449  )
         3        B      tau(   3) = (   0.6102603   0.2453136   0.0000036  )
         4        B      tau(   4) = (   0.3897397   0.7802474   0.0000036  )
         5        B      tau(   5) = (   0.1102603   0.2674669   0.3461899  )
         6        B      tau(   6) = (   0.8897397   0.7580942   0.3461899  )
         7        H      tau(   7) = (   0.4341140   0.2996140   0.0001850  )
         8        H      tau(   8) = (   0.5658860   0.7259471   0.0001850  )
         9        H      tau(   9) = (   0.9341140   0.2131666   0.3460085  )
        10        H      tau(  10) = (   0.0658860   0.8123945   0.3460085  )
        11        H      tau(  11) = (   0.7220604   0.3933428   0.0001031  )
        12        H      tau(  12) = (   0.2779396   0.6322183   0.0001031  )
        13        H      tau(  13) = (   0.2220604   0.1194377   0.3460904  )
        14        H      tau(  14) = (   0.7779396   0.9061233   0.3460904  )
        15        H      tau(  15) = (   0.6391800   0.1456751   0.5403817  )
        16        H      tau(  16) = (   0.3608200   0.8798859   0.5403817  )
        17        H      tau(  17) = (   0.1391800   0.3671054   0.4981990  )
        18        H      tau(  18) = (   0.8608200   0.6584556   0.4981990  )
        19        H      tau(  19) = (   0.3604809   0.8798161   0.1519668  )
        20        H      tau(  20) = (   0.6395191   0.1457449   0.1519668  )
        21        H      tau(  21) = (   0.8604809   0.6585255   0.1942267  )
        22        H      tau(  22) = (   0.1395191   0.3670356   0.1942267  )

     number of k points=    27
                       cart. coord. in units 2pi/alat
        k(    1) = (   0.0000000   0.0000000   0.0000000), wk =   0.0312500
        k(    2) = (   0.0000000   0.0000000   0.3610697), wk =   0.0625000
        k(    3) = (   0.0000000   0.0000000  -0.7221394), wk =   0.0312500
        k(    4) = (   0.0000000   0.2437690   0.0000000), wk =   0.0625000
        k(    5) = (   0.0000000   0.2437690   0.3610697), wk =   0.1250000
        k(    6) = (   0.0000000   0.2437690  -0.7221394), wk =   0.0625000
        k(    7) = (   0.0000000  -0.4875380   0.0000000), wk =   0.0312500
        k(    8) = (   0.0000000  -0.4875380   0.3610697), wk =   0.0625000
        k(    9) = (   0.0000000  -0.4875380  -0.7221394), wk =   0.0312500
        k(   10) = (   0.2500000   0.0000000   0.0000000), wk =   0.0625000
        k(   11) = (   0.2500000   0.0000000   0.3610697), wk =   0.1250000
        k(   12) = (   0.2500000   0.0000000  -0.7221394), wk =   0.0625000
        k(   13) = (   0.2500000   0.2437690   0.0000000), wk =   0.1250000
        k(   14) = (   0.2500000   0.2437690   0.3610697), wk =   0.2500000
        k(   15) = (   0.2500000   0.2437690  -0.7221394), wk =   0.1250000
        k(   16) = (   0.2500000  -0.4875380   0.0000000), wk =   0.0625000
        k(   17) = (   0.2500000  -0.4875380   0.3610697), wk =   0.1250000
        k(   18) = (   0.2500000  -0.4875380  -0.7221394), wk =   0.0625000
        k(   19) = (  -0.5000000   0.0000000   0.0000000), wk =   0.0312500
        k(   20) = (  -0.5000000   0.0000000   0.3610697), wk =   0.0625000
        k(   21) = (  -0.5000000   0.0000000  -0.7221394), wk =   0.0312500
        k(   22) = (  -0.5000000   0.2437690   0.0000000), wk =   0.0625000
        k(   23) = (  -0.5000000   0.2437690   0.3610697), wk =   0.1250000
        k(   24) = (  -0.5000000   0.2437690  -0.7221394), wk =   0.0625000
        k(   25) = (  -0.5000000  -0.4875380   0.0000000), wk =   0.0312500
        k(   26) = (  -0.5000000  -0.4875380   0.3610697), wk =   0.0625000
        k(   27) = (  -0.5000000  -0.4875380  -0.7221394), wk =   0.0312500

     Dense  grid:   545363 G-vectors     FFT dimensions: ( 120, 120,  80)

     Smooth grid:   192749 G-vectors     FFT dimensions: (  90,  90,  60)

     Estimated max dynamical RAM per process >      90.81 MB

     Estimated total dynamical RAM >       2.13 GB

     Initial potential from superposition of free atoms

     starting charge      47.9682, renormalised to      48.0000
     Starting wfcs are   42 randomized atomic wfcs

     total cpu time spent up to now is       11.6 secs

     Self-consistent Calculation

     iteration #  1     ecut=   100.00 Ry     beta= 0.70
     Davidson diagonalization with overlap
     ethr =  1.00E-02,  avg # of iterations =  2.0

     total cpu time spent up to now is       25.6 secs

     total energy              =    -155.92714028 Ry
     estimated scf accuracy    <       2.08821032 Ry

     iteration #  2     ecut=   100.00 Ry     beta= 0.70
     Davidson diagonalization with overlap
     ethr =  4.35E-03,  avg # of iterations =  2.0

     total cpu time spent up to now is       38.4 secs

     total energy              =    -156.40931475 Ry
     estimated scf accuracy    <       0.37086388 Ry

     iteration #  3     ecut=   100.00 Ry     beta= 0.70
     Davidson diagonalization with overlap
     ethr =  7.73E-04,  avg # of iterations =  2.0

     total cpu time spent up to now is       51.2 secs

     total energy              =    -156.47110614 Ry
     estimated scf accuracy    <       0.00488646 Ry

     iteration #  4     ecut=   100.00 Ry     beta= 0.70
     Davidson diagonalization with overlap
     ethr =  1.02E-05,  avg # of iterations =  5.1

     total cpu time spent up to now is       70.1 secs

     total energy              =    -156.47419928 Ry
     estimated scf accuracy    <       0.00169635 Ry

     iteration #  5     ecut=   100.00 Ry     beta= 0.70
     Davidson diagonalization with overlap
     ethr =  3.53E-06,  avg # of iterations =  3.1

     total cpu time spent up to now is       83.4 secs

     total energy              =    -156.47478436 Ry
     estimated scf accuracy    <       0.00016794 Ry

     iteration #  6     ecut=   100.00 Ry     beta= 0.70
     Davidson diagonalization with overlap
     ethr =  3.50E-07,  avg # of iterations =  4.0

     total cpu time spent up to now is       98.0 secs

     total energy              =    -156.47484729 Ry
     estimated scf accuracy    <       0.00000121 Ry

     iteration #  7     ecut=   100.00 Ry     beta= 0.70
     Davidson diagonalization with overlap
     ethr =  2.51E-09,  avg # of iterations =  9.0

     total cpu time spent up to now is      129.1 secs

     total energy              =    -156.47485628 Ry
     estimated scf accuracy    <       0.00000108 Ry

     iteration #  8     ecut=   100.00 Ry     beta= 0.70
     Davidson diagonalization with overlap
     ethr =  2.24E-09,  avg # of iterations =  2.0

     total cpu time spent up to now is      141.9 secs

     total energy              =    -156.47485656 Ry
     estimated scf accuracy    <       0.00000004 Ry

     iteration #  9     ecut=   100.00 Ry     beta= 0.70
     Davidson diagonalization with overlap
     ethr =  8.10E-11,  avg # of iterations =  5.4

     total cpu time spent up to now is      158.9 secs

     total energy              =    -156.47485658 Ry
     estimated scf accuracy    <          3.3E-09 Ry

     iteration # 10     ecut=   100.00 Ry     beta= 0.70
     Davidson diagonalization with overlap
     ethr =  6.81E-12,  avg # of iterations =  4.0

     total cpu time spent up to now is      174.6 secs

     total energy              =    -156.47485658 Ry
     estimated scf accuracy    <          1.1E-09 Ry

     iteration # 11     ecut=   100.00 Ry     beta= 0.70
     Davidson diagonalization with overlap
     ethr =  2.35E-12,  avg # of iterations =  2.5

     total cpu time spent up to now is      187.5 secs

     End of self-consistent calculation

          k = 0.0000 0.0000 0.0000 ( 24047 PWs)   bands (ev):

   -23.7774 -23.7678  -9.3489  -9.2556  -9.0487  -9.0073  -8.9783  -8.9109
    -5.9848  -5.0156  -4.3032  -4.1569  -1.6835  -0.7617  -0.6818  -0.3366
     0.0493   0.0708   0.1208   0.2389   0.4074   0.8268   0.8416   0.8846

          k = 0.0000 0.0000 0.3611 ( 24116 PWs)   bands (ev):

   -23.7691 -23.7623  -9.2480  -9.2474  -9.2221  -9.1846  -9.0295  -9.0067
    -5.4619  -4.7410  -4.4868  -4.3953  -1.2903  -1.0306  -0.5736  -0.5210
    -0.3694  -0.2473   0.1274   0.4211   0.6163   0.6596   0.7380   0.8882

          k = 0.0000 0.0000-0.7221 ( 24112 PWs)   bands (ev):

   -23.7588 -23.7588  -9.4783  -9.4780  -9.0946  -9.0946  -9.0390  -9.0390
    -4.7283  -4.7275  -4.6558  -4.6551  -1.0536  -1.0509  -1.0411  -1.0368
     0.0334   0.0376   0.1216   0.1245   0.7041   0.7049   0.7155   0.7203

          k = 0.0000 0.2438 0.0000 ( 24101 PWs)   bands (ev):

   -23.7760 -23.7692  -9.3181  -9.2230  -9.1068  -9.0454  -8.9682  -8.9205
    -5.7767  -4.9204  -4.6025  -4.2931  -1.3089  -0.8716  -0.8382  -0.0493
    -0.0322  -0.0114   0.2872   0.4124   0.4929   0.5016   0.7368   0.8126

          k = 0.0000 0.2438 0.3611 ( 24100 PWs)   bands (ev):

   -23.7681 -23.7633  -9.2966  -9.2552  -9.1689  -9.1545  -9.0396  -9.0303
    -5.3538  -4.8189  -4.5292  -4.4357  -1.0967  -1.0554  -0.8608  -0.2767
    -0.2319  -0.0367  -0.0225   0.4750   0.5491   0.6009   0.7050   0.7634

          k = 0.0000 0.2438-0.7221 ( 24080 PWs)   bands (ev):

   -23.7587 -23.7587  -9.4927  -9.4925  -9.0746  -9.0746  -9.0381  -9.0381
    -5.0300  -5.0300  -4.3414  -4.3414  -1.1795  -1.1779  -0.8568  -0.8532
     0.1125   0.1143   0.1614   0.1637   0.5232   0.5273   0.7127   0.7128

          k = 0.0000-0.4875 0.0000 ( 24118 PWs)   bands (ev):

   -23.7726 -23.7726  -9.2304  -9.2304  -9.1320  -9.1320  -8.9442  -8.9442
    -5.2581  -5.2581  -4.5935  -4.5935  -0.9967  -0.9967  -0.3597  -0.3597
    -0.1156  -0.1156   0.4052   0.4052   0.5397   0.5397   0.6644   0.6644

          k = 0.0000-0.4875 0.3611 ( 24070 PWs)   bands (ev):

   -23.7657 -23.7657  -9.2960  -9.2960  -9.1079  -9.1079  -9.0721  -9.0721
    -5.0849  -5.0849  -4.5089  -4.5089  -1.0395  -1.0395  -0.6227  -0.6227
     0.0176   0.0176   0.3057   0.3057   0.4618   0.4618   0.6797   0.6797

          k = 0.0000-0.4875-0.7221 ( 24052 PWs)   bands (ev):

   -23.7587 -23.7587  -9.5058  -9.5058  -9.0577  -9.0577  -9.0351  -9.0351
    -5.1667  -5.1667  -4.1926  -4.1926  -1.2724  -1.2724  -0.6001  -0.6001
     0.0338   0.0338   0.2369   0.2369   0.3267   0.3267   0.7501   0.7501

          k = 0.2500 0.0000 0.0000 ( 24106 PWs)   bands (ev):

   -23.7760 -23.7692  -9.3076  -9.2361  -9.0954  -9.0640  -8.9682  -8.9205
    -5.7855  -5.0438  -4.3471  -4.3198  -1.4873  -0.6120  -0.5943  -0.4662
     0.0929   0.1313   0.1965   0.2639   0.3639   0.3907   0.7897   0.8274

          k = 0.2500 0.0000 0.3611 ( 24083 PWs)   bands (ev):

   -23.7681 -23.7633  -9.2870  -9.2678  -9.1994  -9.1290  -9.0569  -9.0174
    -5.3076  -4.7222  -4.5310  -4.5218  -1.2612  -1.0123  -0.8662  -0.3263
    -0.3132  -0.0302   0.2003   0.3384   0.4810   0.6119   0.8094   0.8380

          k = 0.2500 0.0000-0.7221 ( 24124 PWs)   bands (ev):

   -23.7587 -23.7587  -9.4978  -9.4976  -9.0798  -9.0797  -9.0354  -9.0354
    -4.8225  -4.8220  -4.5288  -4.5283  -1.5341  -1.5334  -0.5823  -0.5819
     0.0288   0.0316   0.3726   0.3750   0.5008   0.5015   0.7486   0.7523

          k = 0.2500 0.2438 0.0000 ( 24073 PWs)   bands (ev):

   -23.7750 -23.7702  -9.3376  -9.2102  -9.1519  -9.0145  -8.9609  -8.9272
    -5.6391  -5.0004  -4.6015  -4.3518  -1.1897  -0.8457  -0.6291  -0.1589
    -0.0881  -0.0380   0.2735   0.4221   0.4381   0.5202   0.5905   0.7419

          k = 0.2500 0.2438 0.3611 ( 24096 PWs)   bands (ev):

   -23.7674 -23.7640  -9.2898  -9.2471  -9.2398  -9.1074  -9.0689  -9.0101
    -5.2171  -4.7645  -4.6182  -4.5153  -1.2240  -0.9792  -0.8801  -0.3137
    -0.1526   0.0287   0.1328   0.3587   0.4593   0.5744   0.7286   0.8158

          k = 0.2500 0.2438-0.7221 ( 24132 PWs)   bands (ev):

   -23.7587 -23.7587  -9.5051  -9.4799  -9.1031  -9.0597  -9.0436  -9.0359
    -5.0421  -4.8498  -4.4929  -4.2949  -1.5099  -1.4251  -0.6558  -0.5417
    -0.0210  -0.0171   0.3421   0.4108   0.5131   0.5605   0.6971   0.7283

          k = 0.2500-0.4875 0.0000 ( 24074 PWs)   bands (ev):

   -23.7726 -23.7726  -9.3109  -9.3109  -9.0518  -9.0518  -8.9437  -8.9437
    -5.2648  -5.2648  -4.5752  -4.5752  -0.9011  -0.9011  -0.3698  -0.3698
    -0.1556  -0.1556   0.3338   0.3338   0.5795   0.5795   0.5986   0.5986

          k = 0.2500-0.4875 0.3611 ( 24112 PWs)   bands (ev):

   -23.7656 -23.7656  -9.2838  -9.2838  -9.1752  -9.1752  -9.0252  -9.0252
    -4.9920  -4.9920  -4.5811  -4.5811  -1.1319  -1.1319  -0.5434  -0.5434
    -0.0085  -0.0085   0.3242   0.3242   0.4727   0.4727   0.7001   0.7001

          k = 0.2500-0.4875-0.7221 ( 24088 PWs)   bands (ev):

   -23.7587 -23.7587  -9.4884  -9.4884  -9.0838  -9.0838  -9.0422  -9.0422
    -5.0517  -5.0517  -4.2768  -4.2768  -1.3939  -1.3939  -0.6622  -0.6622
     0.0982   0.0982   0.2277   0.2277   0.5548   0.5548   0.7157   0.7157

          k =-0.5000 0.0000 0.0000 ( 24112 PWs)   bands (ev):

   -23.7726 -23.7726  -9.2059  -9.2059  -9.1661  -9.1661  -8.9442  -8.9442
    -5.3404  -5.3404  -4.4214  -4.4214  -1.0540  -1.0540  -0.2409  -0.2409
     0.1334   0.1334   0.1497   0.1497   0.2430   0.2430   0.6747   0.6747

          k =-0.5000 0.0000 0.3611 ( 24132 PWs)   bands (ev):

   -23.7656 -23.7656  -9.3003  -9.3003  -9.1317  -9.1317  -9.0564  -9.0564
    -4.9459  -4.9459  -4.5945  -4.5945  -1.1855  -1.1855  -0.6061  -0.6061
    -0.0062  -0.0062   0.1899   0.1899   0.5748   0.5748   0.7960   0.7960

          k =-0.5000 0.0000-0.7221 ( 24120 PWs)   bands (ev):

   -23.7587 -23.7587  -9.5158  -9.5158  -9.0676  -9.0676  -9.0305  -9.0305
    -4.8698  -4.8698  -4.4457  -4.4457  -1.7515  -1.7515  -0.2752  -0.2752
     0.0264   0.0264   0.1973   0.1973   0.6936   0.6936   0.7064   0.7064

          k =-0.5000 0.2438 0.0000 ( 24064 PWs)   bands (ev):

   -23.7725 -23.7725  -9.3092  -9.3092  -9.0582  -9.0582  -8.9438  -8.9438
    -5.3091  -5.3091  -4.4861  -4.4861  -0.9436  -0.9436  -0.2473  -0.2473
    -0.0871  -0.0871   0.1085   0.1085   0.4870   0.4870   0.6541   0.6541

          k =-0.5000 0.2438 0.3611 ( 24110 PWs)   bands (ev):

   -23.7656 -23.7656  -9.2866  -9.2866  -9.1797  -9.1797  -9.0240  -9.0240
    -4.9023  -4.9023  -4.6438  -4.6438  -1.1909  -1.1909  -0.5764  -0.5764
     0.0286   0.0286   0.2372   0.2372   0.5674   0.5674   0.7254   0.7254

          k =-0.5000 0.2438-0.7221 ( 24144 PWs)   bands (ev):

   -23.7587 -23.7587  -9.4939  -9.4939  -9.0867  -9.0867  -9.0414  -9.0414
    -4.8858  -4.8858  -4.4206  -4.4206  -1.6452  -1.6452  -0.4915  -0.4915
     0.0714   0.0714   0.2727   0.2727   0.6268   0.6268   0.7699   0.7699

          k =-0.5000-0.4875 0.0000 ( 24076 PWs)   bands (ev):

   -23.7725 -23.7725  -9.3579  -9.3579  -9.0049  -9.0049  -8.9433  -8.9433
    -5.2732  -5.2732  -4.5541  -4.5541  -0.7859  -0.7859  -0.4017  -0.4017
    -0.1917  -0.1917   0.3000   0.3000   0.4957   0.4957   0.6156   0.6156

          k =-0.5000-0.4875 0.3611 ( 24128 PWs)   bands (ev):

   -23.7656 -23.7656  -9.2596  -9.2596  -9.2278  -9.2278  -9.0050  -9.0050
    -4.8304  -4.8304  -4.7211  -4.7211  -1.1790  -1.1790  -0.6156  -0.6156
     0.1839   0.1839   0.3251   0.3251   0.4720   0.4720   0.6318   0.6318

          k =-0.5000-0.4875-0.7221 ( 24112 PWs)   bands (ev):

   -23.7587 -23.7587  -9.4689  -9.4689  -9.1123  -9.1123  -9.0488  -9.0488
    -4.9011  -4.9011  -4.3960  -4.3960  -1.4827  -1.4827  -0.7926  -0.7926
     0.3016   0.3016   0.3490   0.3490   0.4948   0.4948   0.7349   0.7349

     highest occupied level (ev):     0.8882

!    total energy              =    -156.47485658 Ry
     estimated scf accuracy    <          5.0E-11 Ry

     The total energy is the sum of the following terms:
     one-electron contribution =     -21.47189077 Ry
     hartree contribution      =      25.27335120 Ry
     xc contribution           =     -49.14526356 Ry
     ewald contribution        =    -111.13105345 Ry

     convergence has been achieved in  11 iterations

     Forces acting on atoms (cartesian axes, Ry/au):

     atom    1 type  2   force =     0.00000000    0.00000000    0.00002415
     atom    2 type  2   force =     0.00000000    0.00000000   -0.00002415
     atom    3 type  1   force =     0.00000177    0.00000289    0.00007554
     atom    4 type  1   force =    -0.00000177   -0.00000289    0.00007554
     atom    5 type  1   force =     0.00000177   -0.00000289   -0.00007554
     atom    6 type  1   force =    -0.00000177    0.00000289   -0.00007554
     atom    7 type  3   force =    -0.00005432    0.00002444   -0.00002963
     atom    8 type  3   force =     0.00005432   -0.00002444   -0.00002963
     atom    9 type  3   force =    -0.00005432   -0.00002444    0.00002963
     atom   10 type  3   force =     0.00005432    0.00002444    0.00002963
     atom   11 type  3   force =     0.00001854    0.00004325   -0.00016764
     atom   12 type  3   force =    -0.00001854   -0.00004325   -0.00016764
     atom   13 type  3   force =     0.00001854   -0.00004325    0.00016764
     atom   14 type  3   force =    -0.00001854    0.00004325    0.00016764
     atom   15 type  3   force =     0.00008845    0.00007002    0.00002268
     atom   16 type  3   force =    -0.00008845   -0.00007002    0.00002268
     atom   17 type  3   force =     0.00008845   -0.00007002   -0.00002268
     atom   18 type  3   force =    -0.00008845    0.00007002   -0.00002268
     atom   19 type  3   force =     0.00005541    0.00012994    0.00006816
     atom   20 type  3   force =    -0.00005541   -0.00012994    0.00006816
     atom   21 type  3   force =     0.00005541   -0.00012994   -0.00006816
     atom   22 type  3   force =    -0.00005541    0.00012994   -0.00006816

     Total force =     0.000561     Total SCF correction =     0.000004


     Computing stress (Cartesian axis) and pressure

          total   stress  (Ry/bohr**3)                   (kbar)     P=        0.03
   0.00000024   0.00000000   0.00000000            0.04        0.00        0.00
   0.00000000   0.00000028   0.00000000            0.00        0.04        0.00
   0.00000000   0.00000000   0.00000016            0.00        0.00        0.02


     BFGS Geometry Optimization
     Energy error            =      0.0E+00 Ry
     Gradient error          =      1.7E-04 Ry/Bohr
     Cell gradient error     =      4.2E-02 kbar

     number of scf cycles    =   1
     number of bfgs steps    =   0

     enthalpy           new  =    -156.4748565776 Ry

     new trust radius        =       0.0001741219 bohr
     new conv_thr            =            1.0E-10 Ry

     new unit-cell volume =   1427.07861 a.u.^3 (   211.47123 Ang^3 )
     density =      2.62287 g/cm^3

CELL_PARAMETERS (alat= 12.61953421)
   1.000006118   0.000000000   0.000000000
   0.000000000   1.025568321   0.000000000
   0.000000000   0.000000000   0.692389807

ATOMIC_POSITIONS (crystal)
Ba               0.5000000000        0.5000000000        0.5000637220
Ba               0.0000000000        0.0000000000        0.9999362780
B                0.6102604017        0.2391996726        0.0000139084
B                0.3897395983        0.7608003274        0.0000139084
B                0.1102604017        0.2608003274        0.4999860916
B                0.8897395983        0.7391996726        0.4999860916
H                0.4341097214        0.2921482778        0.0002637854
H                0.5658902786        0.7078517222        0.0002637854
H                0.9341097214        0.2078517222        0.4997362146
H                0.0658902786        0.7921482778        0.4997362146
H                0.7220618873        0.3835424555        0.0001297845
H                0.2779381127        0.6164575445        0.0001297845
H                0.2220618873        0.1164575445        0.4998702155
H                0.7779381127        0.8835424555        0.4998702155
H                0.6391870574        0.1420497010        0.7804643750
H                0.3608129426        0.8579502990        0.7804643750
H                0.1391870574        0.3579502990        0.7195356250
H                0.8608129426        0.6420497010        0.7195356250
H                0.3604852686        0.8578976315        0.2194902768
H                0.6395147314        0.1421023685        0.2194902768
H                0.8604852686        0.6421023685        0.2805097232
H                0.1395147314        0.3578976315        0.2805097232



     Writing config-only to output data dir ./pwscf.save/ :
     XML data file
     NEW-OLD atomic charge density approx. for the potential

     total cpu time spent up to now is      200.2 secs

     Self-consistent Calculation

     iteration #  1     ecut=   100.00 Ry     beta= 0.70
     Davidson diagonalization with overlap
     ethr =  1.00E-06,  avg # of iterations =  1.0

     Threshold (ethr) on eigenvalues was too large:
     Diagonalizing with lowered threshold

     Davidson diagonalization with overlap
     ethr =  1.16E-11,  avg # of iterations =  4.1

     total cpu time spent up to now is      228.3 secs

     total energy              =    -156.47485687 Ry
     estimated scf accuracy    <       0.00000002 Ry

     iteration #  2     ecut=   100.00 Ry     beta= 0.70
     Davidson diagonalization with overlap
     ethr =  3.73E-11,  avg # of iterations =  2.0

     total cpu time spent up to now is      241.0 secs

     total energy              =    -156.47485687 Ry
     estimated scf accuracy    <          3.2E-09 Ry

     iteration #  3     ecut=   100.00 Ry     beta= 0.70
     Davidson diagonalization with overlap
     ethr =  6.71E-12,  avg # of iterations =  2.0

     total cpu time spent up to now is      253.7 secs

     End of self-consistent calculation

          k = 0.0000 0.0000 0.0000 ( 24047 PWs)   bands (ev):

   -23.7776 -23.7679  -9.3490  -9.2557  -9.0488  -9.0075  -8.9784  -8.9110
    -5.9848  -5.0155  -4.3032  -4.1569  -1.6836  -0.7617  -0.6819  -0.3366
     0.0494   0.0707   0.1208   0.2389   0.4074   0.8268   0.8416   0.8845

          k = 0.0000 0.0000 0.3611 ( 24116 PWs)   bands (ev):

   -23.7692 -23.7624  -9.2481  -9.2475  -9.2222  -9.1847  -9.0296  -9.0068
    -5.4619  -4.7409  -4.4868  -4.3952  -1.2904  -1.0307  -0.5736  -0.5210
    -0.3694  -0.2473   0.1273   0.4211   0.6163   0.6596   0.7379   0.8881

          k = 0.0000 0.0000-0.7221 ( 24112 PWs)   bands (ev):

   -23.7589 -23.7589  -9.4783  -9.4781  -9.0947  -9.0947  -9.0391  -9.0391
    -4.7282  -4.7275  -4.6558  -4.6550  -1.0536  -1.0511  -1.0410  -1.0370
     0.0336   0.0374   0.1217   0.1244   0.7041   0.7047   0.7158   0.7200

          k = 0.0000 0.2438 0.0000 ( 24101 PWs)   bands (ev):

   -23.7761 -23.7693  -9.3182  -9.2231  -9.1069  -9.0455  -8.9683  -8.9207
    -5.7766  -4.9204  -4.6024  -4.2931  -1.3090  -0.8717  -0.8382  -0.0493
    -0.0322  -0.0114   0.2871   0.4124   0.4929   0.5015   0.7368   0.8126

          k = 0.0000 0.2438 0.3611 ( 24100 PWs)   bands (ev):

   -23.7682 -23.7634  -9.2967  -9.2553  -9.1690  -9.1546  -9.0397  -9.0305
    -5.3538  -4.8188  -4.5292  -4.4357  -1.0968  -1.0555  -0.8609  -0.2768
    -0.2319  -0.0367  -0.0225   0.4750   0.5491   0.6008   0.7050   0.7633

          k = 0.0000 0.2438-0.7221 ( 24080 PWs)   bands (ev):

   -23.7589 -23.7589  -9.4927  -9.4926  -9.0747  -9.0747  -9.0382  -9.0382
    -5.0300  -5.0300  -4.3414  -4.3414  -1.1795  -1.1780  -0.8567  -0.8534
     0.1126   0.1142   0.1614   0.1636   0.5235   0.5270   0.7126   0.7127

          k = 0.0000-0.4875 0.0000 ( 24118 PWs)   bands (ev):

   -23.7727 -23.7727  -9.2305  -9.2305  -9.1321  -9.1321  -8.9443  -8.9443
    -5.2580  -5.2580  -4.5934  -4.5934  -0.9968  -0.9968  -0.3598  -0.3598
    -0.1156  -0.1156   0.4052   0.4052   0.5397   0.5397   0.6644   0.6644

          k = 0.0000-0.4875 0.3611 ( 24070 PWs)   bands (ev):

   -23.7658 -23.7658  -9.2961  -9.2961  -9.1080  -9.1080  -9.0722  -9.0722
    -5.0848  -5.0848  -4.5089  -4.5089  -1.0396  -1.0396  -0.6227  -0.6227
     0.0176   0.0176   0.3056   0.3056   0.4617   0.4617   0.6797   0.6797

          k = 0.0000-0.4875-0.7221 ( 24052 PWs)   bands (ev):

   -23.7589 -23.7589  -9.5059  -9.5059  -9.0578  -9.0578  -9.0352  -9.0352
    -5.1666  -5.1666  -4.1926  -4.1926  -1.2725  -1.2725  -0.6002  -0.6002
     0.0337   0.0337   0.2369   0.2369   0.3267   0.3267   0.7501   0.7501

          k = 0.2500 0.0000 0.0000 ( 24106 PWs)   bands (ev):

   -23.7761 -23.7693  -9.3077  -9.2362  -9.0955  -9.0641  -8.9683  -8.9207
    -5.7855  -5.0437  -4.3471  -4.3197  -1.4874  -0.6121  -0.5943  -0.4662
     0.0929   0.1313   0.1965   0.2639   0.3639   0.3907   0.7897   0.8273

          k = 0.2500 0.0000 0.3611 ( 24083 PWs)   bands (ev):

   -23.7682 -23.7634  -9.2871  -9.2679  -9.1996  -9.1291  -9.0570  -9.0176
    -5.3076  -4.7222  -4.5309  -4.5218  -1.2613  -1.0124  -0.8663  -0.3264
    -0.3132  -0.0302   0.2003   0.3384   0.4810   0.6119   0.8093   0.8379

          k = 0.2500 0.0000-0.7221 ( 24124 PWs)   bands (ev):

   -23.7589 -23.7589  -9.4979  -9.4977  -9.0799  -9.0798  -9.0355  -9.0355
    -4.8224  -4.8219  -4.5288  -4.5282  -1.5342  -1.5335  -0.5824  -0.5820
     0.0290   0.0315   0.3726   0.3749   0.5008   0.5014   0.7488   0.7521

          k = 0.2500 0.2438 0.0000 ( 24073 PWs)   bands (ev):

   -23.7751 -23.7703  -9.3376  -9.2103  -9.1520  -9.0146  -8.9610  -8.9273
    -5.6390  -5.0004  -4.6015  -4.3518  -1.1898  -0.8458  -0.6292  -0.1589
    -0.0880  -0.0380   0.2735   0.4221   0.4380   0.5202   0.5904   0.7419

          k = 0.2500 0.2438 0.3611 ( 24096 PWs)   bands (ev):

   -23.7675 -23.7641  -9.2899  -9.2472  -9.2399  -9.1075  -9.0690  -9.0102
    -5.2171  -4.7645  -4.6181  -4.5152  -1.2241  -0.9793  -0.8802  -0.3138
    -0.1526   0.0287   0.1328   0.3587   0.4593   0.5744   0.7286   0.8158

          k = 0.2500 0.2438-0.7221 ( 24132 PWs)   bands (ev):

   -23.7588 -23.7588  -9.5052  -9.4800  -9.1032  -9.0598  -9.0437  -9.0360
    -5.0420  -4.8497  -4.4928  -4.2949  -1.5099  -1.4251  -0.6558  -0.5418
    -0.0210  -0.0171   0.3421   0.4107   0.5131   0.5605   0.6971   0.7282

          k = 0.2500-0.4875 0.0000 ( 24074 PWs)   bands (ev):

   -23.7727 -23.7727  -9.3110  -9.3110  -9.0519  -9.0519  -8.9439  -8.9439
    -5.2647  -5.2647  -4.5751  -4.5751  -0.9011  -0.9011  -0.3698  -0.3698
    -0.1556  -0.1556   0.3338   0.3338   0.5796   0.5796   0.5986   0.5986

          k = 0.2500-0.4875 0.3611 ( 24112 PWs)   bands (ev):

   -23.7658 -23.7658  -9.2839  -9.2839  -9.1753  -9.1753  -9.0253  -9.0253
    -4.9920  -4.9920  -4.5811  -4.5811  -1.1319  -1.1319  -0.5435  -0.5435
    -0.0085  -0.0085   0.3242   0.3242   0.4726   0.4726   0.7001   0.7001

          k = 0.2500-0.4875-0.7221 ( 24088 PWs)   bands (ev):

   -23.7588 -23.7588  -9.4885  -9.4885  -9.0839  -9.0839  -9.0423  -9.0423
    -5.0516  -5.0516  -4.2768  -4.2768  -1.3939  -1.3939  -0.6623  -0.6623
     0.0981   0.0981   0.2277   0.2277   0.5548   0.5548   0.7157   0.7157

          k =-0.5000 0.0000 0.0000 ( 24112 PWs)   bands (ev):

   -23.7727 -23.7727  -9.2060  -9.2060  -9.1662  -9.1662  -8.9443  -8.9443
    -5.3404  -5.3404  -4.4214  -4.4214  -1.0541  -1.0541  -0.2409  -0.2409
     0.1334   0.1334   0.1497   0.1497   0.2430   0.2430   0.6747   0.6747

          k =-0.5000 0.0000 0.3611 ( 24132 PWs)   bands (ev):

   -23.7658 -23.7658  -9.3004  -9.3004  -9.1318  -9.1318  -9.0565  -9.0565
    -4.9459  -4.9459  -4.5944  -4.5944  -1.1856  -1.1856  -0.6062  -0.6062
    -0.0062  -0.0062   0.1899   0.1899   0.5748   0.5748   0.7959   0.7959

          k =-0.5000 0.0000-0.7221 ( 24120 PWs)   bands (ev):

   -23.7588 -23.7588  -9.5159  -9.5159  -9.0678  -9.0678  -9.0306  -9.0306
    -4.8697  -4.8697  -4.4457  -4.4457  -1.7515  -1.7515  -0.2753  -0.2753
     0.0264   0.0264   0.1972   0.1972   0.6936   0.6936   0.7063   0.7063

          k =-0.5000 0.2438 0.0000 ( 24064 PWs)   bands (ev):

   -23.7727 -23.7727  -9.3093  -9.3093  -9.0583  -9.0583  -8.9439  -8.9439
    -5.3091  -5.3091  -4.4860  -4.4860  -0.9437  -0.9437  -0.2473  -0.2473
    -0.0871  -0.0871   0.1085   0.1085   0.4870   0.4870   0.6540   0.6540

          k =-0.5000 0.2438 0.3611 ( 24110 PWs)   bands (ev):

   -23.7658 -23.7658  -9.2867  -9.2867  -9.1798  -9.1798  -9.0241  -9.0241
    -4.9022  -4.9022  -4.6438  -4.6438  -1.1910  -1.1910  -0.5765  -0.5765
     0.0286   0.0286   0.2372   0.2372   0.5674   0.5674   0.7253   0.7253

          k =-0.5000 0.2438-0.7221 ( 24144 PWs)   bands (ev):

   -23.7588 -23.7588  -9.4940  -9.4940  -9.0868  -9.0868  -9.0415  -9.0415
    -4.8858  -4.8858  -4.4206  -4.4206  -1.6453  -1.6453  -0.4915  -0.4915
     0.0714   0.0714   0.2727   0.2727   0.6267   0.6267   0.7699   0.7699

          k =-0.5000-0.4875 0.0000 ( 24076 PWs)   bands (ev):

   -23.7726 -23.7726  -9.3580  -9.3580  -9.0051  -9.0051  -8.9435  -8.9435
    -5.2732  -5.2732  -4.5541  -4.5541  -0.7860  -0.7860  -0.4018  -0.4018
    -0.1917  -0.1917   0.3000   0.3000   0.4956   0.4956   0.6155   0.6155

          k =-0.5000-0.4875 0.3611 ( 24128 PWs)   bands (ev):

   -23.7657 -23.7657  -9.2597  -9.2597  -9.2279  -9.2279  -9.0051  -9.0051
    -4.8304  -4.8304  -4.7210  -4.7210  -1.1790  -1.1790  -0.6157  -0.6157
     0.1839   0.1839   0.3251   0.3251   0.4720   0.4720   0.6318   0.6318

          k =-0.5000-0.4875-0.7221 ( 24112 PWs)   bands (ev):

   -23.7588 -23.7588  -9.4690  -9.4690  -9.1124  -9.1124  -9.0489  -9.0489
    -4.9011  -4.9011  -4.3960  -4.3960  -1.4827  -1.4827  -0.7926  -0.7926
     0.3016   0.3016   0.3490   0.3490   0.4947   0.4947   0.7349   0.7349

     highest occupied level (ev):     0.8881

!    total energy              =    -156.47485687 Ry
     estimated scf accuracy    <          5.0E-11 Ry

     The total energy is the sum of the following terms:
     one-electron contribution =     -21.47169164 Ry
     hartree contribution      =      25.27299369 Ry
     xc contribution           =     -49.14501101 Ry
     ewald contribution        =    -111.13114790 Ry

     convergence has been achieved in   3 iterations

     Forces acting on atoms (cartesian axes, Ry/au):

     atom    1 type  2   force =     0.00000000    0.00000000    0.00002403
     atom    2 type  2   force =     0.00000000    0.00000000   -0.00002403
     atom    3 type  1   force =    -0.00000518    0.00000540    0.00006252
     atom    4 type  1   force =     0.00000518   -0.00000540    0.00006252
     atom    5 type  1   force =    -0.00000518   -0.00000540   -0.00006252
     atom    6 type  1   force =     0.00000518    0.00000540   -0.00006252
     atom    7 type  3   force =    -0.00002684    0.00001522   -0.00002680
     atom    8 type  3   force =     0.00002684   -0.00001522   -0.00002680
     atom    9 type  3   force =    -0.00002684   -0.00001522    0.00002680
     atom   10 type  3   force =     0.00002684    0.00001522    0.00002680
     atom   11 type  3   force =     0.00000578    0.00002527   -0.00014623
     atom   12 type  3   force =    -0.00000578   -0.00002527   -0.00014623
     atom   13 type  3   force =     0.00000578   -0.00002527    0.00014623
     atom   14 type  3   force =    -0.00000578    0.00002527    0.00014623
     atom   15 type  3   force =     0.00007972    0.00006856    0.00003167
     atom   16 type  3   force =    -0.00007972   -0.00006856    0.00003167
     atom   17 type  3   force =     0.00007972   -0.00006856   -0.00003167
     atom   18 type  3   force =    -0.00007972    0.00006856   -0.00003167
     atom   19 type  3   force =     0.00005460    0.00010337    0.00004704
     atom   20 type  3   force =    -0.00005460   -0.00010337    0.00004704
     atom   21 type  3   force =     0.00005460   -0.00010337   -0.00004704
     atom   22 type  3   force =    -0.00005460    0.00010337   -0.00004704

     Total force =     0.000473     Total SCF correction =     0.000002


     Computing stress (Cartesian axis) and pressure

          total   stress  (Ry/bohr**3)                   (kbar)     P=        0.00
   0.00000000   0.00000000   0.00000000            0.00        0.00        0.00
   0.00000000   0.00000006   0.00000000            0.00        0.01        0.00
   0.00000000   0.00000000  -0.00000002            0.00        0.00       -0.00

     Energy error            =      2.9E-07 Ry
     Gradient error          =      1.5E-04 Ry/Bohr
     Cell gradient error     =      9.2E-03 kbar

     number of scf cycles    =   2
     number of bfgs steps    =   1

     enthalpy           old  =    -156.4748565776 Ry
     enthalpy           new  =    -156.4748568698 Ry

     CASE: enthalpy          _new < enthalpy          _old


     WARNING: bfgs curvature condition failed, Theta= 0.975
     new trust radius        =       0.0001915349 bohr
     new conv_thr            =            1.0E-12 Ry

     new unit-cell volume =   1427.08436 a.u.^3 (   211.47208 Ang^3 )
     density =      2.62286 g/cm^3

CELL_PARAMETERS (alat= 12.61953421)
   1.000007239   0.000000000   0.000000000
   0.000000000   1.025571306   0.000000000
   0.000000000   0.000000000   0.692389807

ATOMIC_POSITIONS (crystal)
Ba               0.5000000000        0.5000000000        0.5000671930
Ba               0.0000000000        0.0000000000        0.9999328070
B                0.6102599779        0.2392001655        0.0000231870
B                0.3897400221        0.7607998345        0.0000231870
B                0.1102599779        0.2607998345        0.4999768130
B                0.8897400221        0.7392001655        0.4999768130
H                0.4341066677        0.2921498827        0.0002598610
H                0.5658933323        0.7078501173        0.0002598610
H                0.9341066677        0.2078501173        0.4997401390
H                0.0658933323        0.7921498827        0.4997401390
H                0.7220626372        0.3835451553        0.0001082589
H                0.2779373628        0.6164548447        0.0001082589
H                0.2220626372        0.1164548447        0.4998917411
H                0.7779373628        0.8835451553        0.4998917411
H                0.6391951431        0.1420564022        0.7804687710
H                0.3608048569        0.8579435978        0.7804687710
H                0.1391951431        0.3579435978        0.7195312290
H                0.8608048569        0.6420564022        0.7195312290
H                0.3604907367        0.8579080557        0.2194974793
H                0.6395092633        0.1420919443        0.2194974793
H                0.8604907367        0.6420919443        0.2805025207
H                0.1395092633        0.3579080557        0.2805025207



     Writing config-only to output data dir ./pwscf.save/ :
     XML data file
     NEW-OLD atomic charge density approx. for the potential

     total cpu time spent up to now is      266.4 secs

     Self-consistent Calculation

     iteration #  1     ecut=   100.00 Ry     beta= 0.70
     Davidson diagonalization with overlap
     ethr =  1.00E-06,  avg # of iterations =  1.0

     Threshold (ethr) on eigenvalues was too large:
     Diagonalizing with lowered threshold

     Davidson diagonalization with overlap
     ethr =  9.37E-12,  avg # of iterations =  4.1

     total cpu time spent up to now is      294.9 secs

     total energy              =    -156.47485713 Ry
     estimated scf accuracy    <       0.00000001 Ry

     iteration #  2     ecut=   100.00 Ry     beta= 0.70
     Davidson diagonalization with overlap
     ethr =  2.47E-11,  avg # of iterations =  2.0

     total cpu time spent up to now is      307.7 secs

     total energy              =    -156.47485713 Ry
     estimated scf accuracy    <          1.5E-09 Ry

     iteration #  3     ecut=   100.00 Ry     beta= 0.70
     Davidson diagonalization with overlap
     ethr =  3.10E-12,  avg # of iterations =  2.0

     total cpu time spent up to now is      320.4 secs

     total energy              =    -156.47485713 Ry
     estimated scf accuracy    <          4.3E-11 Ry

     iteration #  4     ecut=   100.00 Ry     beta= 0.70
     Davidson diagonalization with overlap
     ethr =  1.00E-13,  avg # of iterations =  4.0

     total cpu time spent up to now is      334.4 secs

     total energy              =    -156.47485713 Ry
     estimated scf accuracy    <          7.4E-12 Ry

     iteration #  5     ecut=   100.00 Ry     beta= 0.70
     Davidson diagonalization with overlap
     ethr =  1.00E-13,  avg # of iterations =  2.0

     total cpu time spent up to now is      345.5 secs

     total energy              =    -156.47485713 Ry
     estimated scf accuracy    <          1.0E-12 Ry

     iteration #  6     ecut=   100.00 Ry     beta= 0.70
     Davidson diagonalization with overlap
     ethr =  1.00E-13,  avg # of iterations =  1.0

     total cpu time spent up to now is      355.4 secs

     End of self-consistent calculation

          k = 0.0000 0.0000 0.0000 ( 24047 PWs)   bands (ev):

   -23.7776 -23.7679  -9.3490  -9.2557  -9.0488  -9.0075  -8.9784  -8.9110
    -5.9847  -5.0154  -4.3031  -4.1568  -1.6837  -0.7616  -0.6819  -0.3367
     0.0495   0.0707   0.1208   0.2389   0.4075   0.8268   0.8417   0.8845

          k = 0.0000 0.0000 0.3611 ( 24116 PWs)   bands (ev):

   -23.7692 -23.7624  -9.2481  -9.2475  -9.2223  -9.1848  -9.0296  -9.0068
    -5.4619  -4.7409  -4.4867  -4.3951  -1.2904  -1.0307  -0.5736  -0.5210
    -0.3694  -0.2472   0.1274   0.4212   0.6164   0.6596   0.7380   0.8881

          k = 0.0000 0.0000-0.7221 ( 24112 PWs)   bands (ev):

   -23.7589 -23.7589  -9.4783  -9.4781  -9.0947  -9.0947  -9.0391  -9.0391
    -4.7281  -4.7274  -4.6557  -4.6550  -1.0534  -1.0513  -1.0409  -1.0372
     0.0339   0.0372   0.1217   0.1243   0.7041   0.7046   0.7161   0.7198

          k = 0.0000 0.2438 0.0000 ( 24101 PWs)   bands (ev):

   -23.7761 -23.7693  -9.3182  -9.2231  -9.1069  -9.0455  -8.9683  -8.9207
    -5.7766  -4.9203  -4.6024  -4.2930  -1.3091  -0.8717  -0.8382  -0.0492
    -0.0321  -0.0114   0.2871   0.4124   0.4928   0.5016   0.7368   0.8127

          k = 0.0000 0.2438 0.3611 ( 24100 PWs)   bands (ev):

   -23.7682 -23.7634  -9.2967  -9.2553  -9.1690  -9.1546  -9.0397  -9.0305
    -5.3537  -4.8187  -4.5291  -4.4356  -1.0968  -1.0555  -0.8609  -0.2767
    -0.2319  -0.0367  -0.0225   0.4750   0.5491   0.6008   0.7051   0.7633

          k = 0.0000 0.2438-0.7221 ( 24080 PWs)   bands (ev):

   -23.7589 -23.7589  -9.4927  -9.4926  -9.0747  -9.0747  -9.0382  -9.0382
    -5.0299  -5.0299  -4.3413  -4.3413  -1.1795  -1.1781  -0.8565  -0.8536
     0.1127   0.1141   0.1614   0.1635   0.5238   0.5268   0.7127   0.7127

          k = 0.0000-0.4875 0.0000 ( 24118 PWs)   bands (ev):

   -23.7727 -23.7727  -9.2305  -9.2305  -9.1322  -9.1322  -8.9443  -8.9443
    -5.2580  -5.2580  -4.5934  -4.5934  -0.9968  -0.9968  -0.3598  -0.3598
    -0.1156  -0.1156   0.4051   0.4051   0.5398   0.5398   0.6645   0.6645

          k = 0.0000-0.4875 0.3611 ( 24070 PWs)   bands (ev):

   -23.7658 -23.7658  -9.2961  -9.2961  -9.1080  -9.1080  -9.0722  -9.0722
    -5.0848  -5.0848  -4.5088  -4.5088  -1.0396  -1.0396  -0.6227  -0.6227
     0.0176   0.0176   0.3056   0.3056   0.4617   0.4617   0.6797   0.6797

          k = 0.0000-0.4875-0.7221 ( 24052 PWs)   bands (ev):

   -23.7589 -23.7589  -9.5059  -9.5059  -9.0579  -9.0579  -9.0352  -9.0352
    -5.1666  -5.1666  -4.1926  -4.1926  -1.2725  -1.2725  -0.6002  -0.6002
     0.0337   0.0337   0.2369   0.2369   0.3268   0.3268   0.7501   0.7501

          k = 0.2500 0.0000 0.0000 ( 24106 PWs)   bands (ev):

   -23.7761 -23.7693  -9.3077  -9.2362  -9.0955  -9.0641  -8.9683  -8.9207
    -5.7855  -5.0437  -4.3470  -4.3197  -1.4875  -0.6121  -0.5943  -0.4661
     0.0929   0.1313   0.1966   0.2638   0.3640   0.3907   0.7897   0.8273

          k = 0.2500 0.0000 0.3611 ( 24083 PWs)   bands (ev):

   -23.7682 -23.7634  -9.2871  -9.2679  -9.1996  -9.1291  -9.0570  -9.0176
    -5.3076  -4.7221  -4.5308  -4.5217  -1.2613  -1.0124  -0.8663  -0.3264
    -0.3132  -0.0301   0.2003   0.3384   0.4811   0.6120   0.8093   0.8380

          k = 0.2500 0.0000-0.7221 ( 24124 PWs)   bands (ev):

   -23.7589 -23.7589  -9.4979  -9.4977  -9.0799  -9.0799  -9.0355  -9.0355
    -4.8224  -4.8219  -4.5287  -4.5282  -1.5342  -1.5335  -0.5825  -0.5820
     0.0292   0.0313   0.3727   0.3748   0.5009   0.5013   0.7491   0.7519

          k = 0.2500 0.2438 0.0000 ( 24073 PWs)   bands (ev):

   -23.7751 -23.7703  -9.3376  -9.2103  -9.1520  -9.0146  -8.9611  -8.9273
    -5.6390  -5.0003  -4.6014  -4.3517  -1.1898  -0.8458  -0.6292  -0.1589
    -0.0880  -0.0379   0.2735   0.4222   0.4380   0.5202   0.5905   0.7419

          k = 0.2500 0.2438 0.3611 ( 24096 PWs)   bands (ev):

   -23.7675 -23.7641  -9.2899  -9.2472  -9.2399  -9.1075  -9.0690  -9.0102
    -5.2170  -4.7644  -4.6181  -4.5152  -1.2241  -0.9793  -0.8802  -0.3138
    -0.1526   0.0288   0.1328   0.3587   0.4593   0.5744   0.7286   0.8158

          k = 0.2500 0.2438-0.7221 ( 24132 PWs)   bands (ev):

   -23.7589 -23.7589  -9.5052  -9.4800  -9.1032  -9.0598  -9.0437  -9.0360
    -5.0420  -4.8496  -4.4928  -4.2948  -1.5099  -1.4252  -0.6558  -0.5418
    -0.0210  -0.0171   0.3421   0.4107   0.5131   0.5605   0.6972   0.7282

          k = 0.2500-0.4875 0.0000 ( 24074 PWs)   bands (ev):

   -23.7727 -23.7727  -9.3110  -9.3110  -9.0519  -9.0519  -8.9439  -8.9439
    -5.2647  -5.2647  -4.5751  -4.5751  -0.9012  -0.9012  -0.3698  -0.3698
    -0.1556  -0.1556   0.3338   0.3338   0.5796   0.5796   0.5986   0.5986

          k = 0.2500-0.4875 0.3611 ( 24112 PWs)   bands (ev):

   -23.7658 -23.7658  -9.2839  -9.2839  -9.1753  -9.1753  -9.0253  -9.0253
    -4.9920  -4.9920  -4.5810  -4.5810  -1.1320  -1.1320  -0.5435  -0.5435
    -0.0085  -0.0085   0.3242   0.3242   0.4726   0.4726   0.7001   0.7001

          k = 0.2500-0.4875-0.7221 ( 24088 PWs)   bands (ev):

   -23.7588 -23.7588  -9.4885  -9.4885  -9.0839  -9.0839  -9.0423  -9.0423
    -5.0516  -5.0516  -4.2768  -4.2768  -1.3940  -1.3940  -0.6623  -0.6623
     0.0981   0.0981   0.2277   0.2277   0.5548   0.5548   0.7157   0.7157

          k =-0.5000 0.0000 0.0000 ( 24112 PWs)   bands (ev):

   -23.7727 -23.7727  -9.2060  -9.2060  -9.1662  -9.1662  -8.9443  -8.9443
    -5.3403  -5.3403  -4.4213  -4.4213  -1.0542  -1.0542  -0.2409  -0.2409
     0.1335   0.1335   0.1497   0.1497   0.2431   0.2431   0.6747   0.6747

          k =-0.5000 0.0000 0.3611 ( 24132 PWs)   bands (ev):

   -23.7658 -23.7658  -9.3004  -9.3004  -9.1318  -9.1318  -9.0565  -9.0565
    -4.9458  -4.9458  -4.5943  -4.5943  -1.1856  -1.1856  -0.6062  -0.6062
    -0.0062  -0.0062   0.1899   0.1899   0.5748   0.5748   0.7959   0.7959

          k =-0.5000 0.0000-0.7221 ( 24120 PWs)   bands (ev):

   -23.7588 -23.7588  -9.5159  -9.5159  -9.0678  -9.0678  -9.0306  -9.0306
    -4.8696  -4.8696  -4.4456  -4.4456  -1.7515  -1.7515  -0.2753  -0.2753
     0.0264   0.0264   0.1972   0.1972   0.6937   0.6937   0.7063   0.7063

          k =-0.5000 0.2438 0.0000 ( 24064 PWs)   bands (ev):

   -23.7727 -23.7727  -9.3093  -9.3093  -9.0583  -9.0583  -8.9439  -8.9439
    -5.3090  -5.3090  -4.4860  -4.4860  -0.9437  -0.9437  -0.2473  -0.2473
    -0.0870  -0.0870   0.1085   0.1085   0.4871   0.4871   0.6540   0.6540

          k =-0.5000 0.2438 0.3611 ( 24110 PWs)   bands (ev):

   -23.7658 -23.7658  -9.2867  -9.2867  -9.1799  -9.1799  -9.0241  -9.0241
    -4.9022  -4.9022  -4.6437  -4.6437  -1.1910  -1.1910  -0.5765  -0.5765
     0.0287   0.0287   0.2372   0.2372   0.5674   0.5674   0.7254   0.7254

          k =-0.5000 0.2438-0.7221 ( 24144 PWs)   bands (ev):

   -23.7588 -23.7588  -9.4940  -9.4940  -9.0868  -9.0868  -9.0415  -9.0415
    -4.8857  -4.8857  -4.4205  -4.4205  -1.6453  -1.6453  -0.4916  -0.4916
     0.0714   0.0714   0.2727   0.2727   0.6268   0.6268   0.7699   0.7699

          k =-0.5000-0.4875 0.0000 ( 24076 PWs)   bands (ev):

   -23.7727 -23.7727  -9.3580  -9.3580  -9.0051  -9.0051  -8.9435  -8.9435
    -5.2731  -5.2731  -4.5540  -4.5540  -0.7860  -0.7860  -0.4018  -0.4018
    -0.1916  -0.1916   0.3000   0.3000   0.4956   0.4956   0.6156   0.6156

          k =-0.5000-0.4875 0.3611 ( 24128 PWs)   bands (ev):

   -23.7657 -23.7657  -9.2597  -9.2597  -9.2279  -9.2279  -9.0051  -9.0051
    -4.8303  -4.8303  -4.7210  -4.7210  -1.1790  -1.1790  -0.6157  -0.6157
     0.1840   0.1840   0.3251   0.3251   0.4721   0.4721   0.6318   0.6318

          k =-0.5000-0.4875-0.7221 ( 24112 PWs)   bands (ev):

   -23.7588 -23.7588  -9.4690  -9.4690  -9.1124  -9.1124  -9.0489  -9.0489
    -4.9010  -4.9010  -4.3960  -4.3960  -1.4827  -1.4827  -0.7926  -0.7926
     0.3016   0.3016   0.3489   0.3489   0.4947   0.4947   0.7349   0.7349

     highest occupied level (ev):     0.8881

!    total energy              =    -156.47485713 Ry
     estimated scf accuracy    <          1.0E-13 Ry

     The total energy is the sum of the following terms:
     one-electron contribution =     -21.47114788 Ry
     hartree contribution      =      25.27266026 Ry
     xc contribution           =     -49.14487638 Ry
     ewald contribution        =    -111.13149313 Ry

     convergence has been achieved in   6 iterations

     Forces acting on atoms (cartesian axes, Ry/au):

     atom    1 type  2   force =     0.00000000    0.00000000    0.00002567
     atom    2 type  2   force =     0.00000000    0.00000000   -0.00002567
     atom    3 type  1   force =    -0.00000560    0.00000472    0.00004956
     atom    4 type  1   force =     0.00000560   -0.00000472    0.00004956
     atom    5 type  1   force =    -0.00000560   -0.00000472   -0.00004956
     atom    6 type  1   force =     0.00000560    0.00000472   -0.00004956
     atom    7 type  3   force =    -0.00001245    0.00000961   -0.00002414
     atom    8 type  3   force =     0.00001245   -0.00000961   -0.00002414
     atom    9 type  3   force =    -0.00001245   -0.00000961    0.00002414
     atom   10 type  3   force =     0.00001245    0.00000961    0.00002414
     atom   11 type  3   force =    -0.00000187    0.00001400   -0.00012258
     atom   12 type  3   force =     0.00000187   -0.00001400   -0.00012258
     atom   13 type  3   force =    -0.00000187   -0.00001400    0.00012258
     atom   14 type  3   force =     0.00000187    0.00001400    0.00012258
     atom   15 type  3   force =     0.00007103    0.00006145    0.00003289
     atom   16 type  3   force =    -0.00007103   -0.00006145    0.00003289
     atom   17 type  3   force =     0.00007103   -0.00006145   -0.00003289
     atom   18 type  3   force =    -0.00007103    0.00006145   -0.00003289
     atom   19 type  3   force =     0.00005230    0.00007911    0.00003093
     atom   20 type  3   force =    -0.00005230   -0.00007911    0.00003093
     atom   21 type  3   force =     0.00005230   -0.00007911   -0.00003093
     atom   22 type  3   force =    -0.00005230    0.00007911   -0.00003093

     Total force =     0.000394     Total SCF correction =     0.000000


     Computing stress (Cartesian axis) and pressure

          total   stress  (Ry/bohr**3)                   (kbar)     P=       -0.01
  -0.00000012   0.00000000   0.00000000           -0.02        0.00        0.00
   0.00000000  -0.00000007   0.00000000            0.00       -0.01        0.00
   0.00000000   0.00000000  -0.00000011            0.00        0.00       -0.02

     Energy error            =      2.6E-07 Ry
     Gradient error          =      1.2E-04 Ry/Bohr
     Cell gradient error     =      1.8E-02 kbar

     number of scf cycles    =   3
     number of bfgs steps    =   2

     enthalpy           old  =    -156.4748568698 Ry
     enthalpy           new  =    -156.4748571334 Ry

     CASE: enthalpy          _new < enthalpy          _old

     new trust radius        =       0.0002873024 bohr
     new conv_thr            =            1.0E-12 Ry

     new unit-cell volume =   1427.07508 a.u.^3 (   211.47071 Ang^3 )
     density =      2.62288 g/cm^3

CELL_PARAMETERS (alat= 12.61953421)
   1.000004337   0.000000000   0.000000000
   0.000000000   1.025571085   0.000000000
   0.000000000   0.000000000   0.692387465

ATOMIC_POSITIONS (crystal)
Ba               0.5000000000        0.5000000000        0.5000734692
Ba               0.0000000000        0.0000000000        0.9999265308
B                0.6102592392        0.2392009059        0.0000367019
B                0.3897407608        0.7607990941        0.0000367019
B                0.1102592392        0.2607990941        0.4999632981
B                0.8897407608        0.7392009059        0.4999632981
H                0.4341031921        0.2921519563        0.0002536219
H                0.5658968079        0.7078480437        0.0002536219
H                0.9341031921        0.2078480437        0.4997463781
H                0.0658968079        0.7921519563        0.4997463781
H                0.7220629737        0.3835484177        0.0000757386
H                0.2779370263        0.6164515823        0.0000757386
H                0.2220629737        0.1164515823        0.4999242614
H                0.7779370263        0.8835484177        0.4999242614
H                0.6392078984        0.1420669714        0.7804764656
H                0.3607921016        0.8579330286        0.7804764656
H                0.1392078984        0.3579330286        0.7195235344
H                0.8607921016        0.6420669714        0.7195235344
H                0.3604998118        0.8579229135        0.2195068934
H                0.6395001882        0.1420770865        0.2195068934
H                0.8604998118        0.6420770865        0.2804931066
H                0.1395001882        0.3579229135        0.2804931066



     Writing config-only to output data dir ./pwscf.save/ :
     XML data file
     NEW-OLD atomic charge density approx. for the potential

     total cpu time spent up to now is      368.0 secs

     Self-consistent Calculation

     iteration #  1     ecut=   100.00 Ry     beta= 0.70
     Davidson diagonalization with overlap
     ethr =  1.00E-06,  avg # of iterations =  1.0

     Threshold (ethr) on eigenvalues was too large:
     Diagonalizing with lowered threshold

     Davidson diagonalization with overlap
     ethr =  1.99E-11,  avg # of iterations =  4.3

     total cpu time spent up to now is      397.4 secs

     total energy              =    -156.47485744 Ry
     estimated scf accuracy    <       0.00000002 Ry

     iteration #  2     ecut=   100.00 Ry     beta= 0.70
     Davidson diagonalization with overlap
     ethr =  4.15E-11,  avg # of iterations =  2.0

     total cpu time spent up to now is      410.2 secs

     total energy              =    -156.47485744 Ry
     estimated scf accuracy    <          1.6E-09 Ry

     iteration #  3     ecut=   100.00 Ry     beta= 0.70
     Davidson diagonalization with overlap
     ethr =  3.33E-12,  avg # of iterations =  2.0

     total cpu time spent up to now is      422.9 secs

     total energy              =    -156.47485744 Ry
     estimated scf accuracy    <          9.3E-11 Ry

     iteration #  4     ecut=   100.00 Ry     beta= 0.70
     Davidson diagonalization with overlap
     ethr =  1.94E-13,  avg # of iterations =  4.0

     total cpu time spent up to now is      437.0 secs

     total energy              =    -156.47485744 Ry
     estimated scf accuracy    <          5.4E-12 Ry

     iteration #  5     ecut=   100.00 Ry     beta= 0.70
     Davidson diagonalization with overlap
     ethr =  1.00E-13,  avg # of iterations =  1.8

     total cpu time spent up to now is      447.6 secs

     End of self-consistent calculation

          k = 0.0000 0.0000 0.0000 ( 24047 PWs)   bands (ev):

   -23.7775 -23.7678  -9.3489  -9.2556  -9.0487  -9.0074  -8.9783  -8.9109
    -5.9846  -5.0153  -4.3030  -4.1566  -1.6837  -0.7616  -0.6819  -0.3367
     0.0496   0.0707   0.1210   0.2391   0.4076   0.8269   0.8418   0.8845

          k = 0.0000 0.0000 0.3611 ( 24116 PWs)   bands (ev):

   -23.7691 -23.7623  -9.2480  -9.2474  -9.2222  -9.1847  -9.0295  -9.0067
    -5.4618  -4.7407  -4.4866  -4.3950  -1.2904  -1.0307  -0.5736  -0.5209
    -0.3693  -0.2471   0.1274   0.4213   0.6165   0.6596   0.7381   0.8881

          k = 0.0000 0.0000-0.7221 ( 24112 PWs)   bands (ev):

   -23.7588 -23.7588  -9.4783  -9.4780  -9.0946  -9.0946  -9.0390  -9.0390
    -4.7280  -4.7273  -4.6555  -4.6549  -1.0531  -1.0514  -1.0406  -1.0374
     0.0343   0.0370   0.1219   0.1242   0.7042   0.7046   0.7167   0.7195

          k = 0.0000 0.2438 0.0000 ( 24101 PWs)   bands (ev):

   -23.7760 -23.7692  -9.3181  -9.2230  -9.1068  -9.0454  -8.9682  -8.9206
    -5.7765  -4.9202  -4.6023  -4.2929  -1.3091  -0.8717  -0.8381  -0.0491
    -0.0320  -0.0114   0.2872   0.4126   0.4929   0.5017   0.7368   0.8128

          k = 0.0000 0.2438 0.3611 ( 24100 PWs)   bands (ev):

   -23.7681 -23.7633  -9.2966  -9.2552  -9.1689  -9.1546  -9.0397  -9.0304
    -5.3536  -4.8186  -4.5290  -4.4354  -1.0968  -1.0555  -0.8608  -0.2766
    -0.2318  -0.0366  -0.0225   0.4752   0.5492   0.6008   0.7052   0.7634

          k = 0.0000 0.2438-0.7221 ( 24080 PWs)   bands (ev):

   -23.7588 -23.7588  -9.4927  -9.4925  -9.0746  -9.0746  -9.0381  -9.0381
    -5.0298  -5.0298  -4.3412  -4.3412  -1.1794  -1.1782  -0.8562  -0.8539
     0.1130   0.1141   0.1616   0.1635   0.5243   0.5266   0.7126   0.7128

          k = 0.0000-0.4875 0.0000 ( 24118 PWs)   bands (ev):

   -23.7726 -23.7726  -9.2304  -9.2304  -9.1321  -9.1321  -8.9442  -8.9442
    -5.2579  -5.2579  -4.5932  -4.5932  -0.9968  -0.9968  -0.3598  -0.3598
    -0.1154  -0.1154   0.4052   0.4052   0.5399   0.5399   0.6646   0.6646

          k = 0.0000-0.4875 0.3611 ( 24070 PWs)   bands (ev):

   -23.7657 -23.7657  -9.2960  -9.2960  -9.1079  -9.1079  -9.0721  -9.0721
    -5.0847  -5.0847  -4.5087  -4.5087  -1.0396  -1.0396  -0.6227  -0.6227
     0.0177   0.0177   0.3057   0.3057   0.4618   0.4618   0.6799   0.6799

          k = 0.0000-0.4875-0.7221 ( 24052 PWs)   bands (ev):

   -23.7588 -23.7588  -9.5058  -9.5058  -9.0578  -9.0578  -9.0351  -9.0351
    -5.1664  -5.1664  -4.1924  -4.1924  -1.2724  -1.2724  -0.6001  -0.6001
     0.0338   0.0338   0.2370   0.2370   0.3269   0.3269   0.7502   0.7502

          k = 0.2500 0.0000 0.0000 ( 24106 PWs)   bands (ev):

   -23.7760 -23.7692  -9.3076  -9.2361  -9.0954  -9.0640  -8.9683  -8.9206
    -5.7854  -5.0435  -4.3469  -4.3195  -1.4875  -0.6121  -0.5943  -0.4661
     0.0931   0.1315   0.1967   0.2639   0.3641   0.3908   0.7898   0.8273

          k = 0.2500 0.0000 0.3611 ( 24083 PWs)   bands (ev):

   -23.7681 -23.7633  -9.2871  -9.2678  -9.1995  -9.1290  -9.0569  -9.0175
    -5.3075  -4.7220  -4.5307  -4.5216  -1.2613  -1.0124  -0.8662  -0.3263
    -0.3131  -0.0300   0.2004   0.3385   0.4812   0.6120   0.8094   0.8381

          k = 0.2500 0.0000-0.7221 ( 24124 PWs)   bands (ev):

   -23.7588 -23.7588  -9.4978  -9.4976  -9.0798  -9.0798  -9.0354  -9.0354
    -4.8222  -4.8218  -4.5286  -4.5281  -1.5341  -1.5335  -0.5824  -0.5819
     0.0295   0.0312   0.3729   0.3748   0.5010   0.5013   0.7495   0.7517

          k = 0.2500 0.2438 0.0000 ( 24073 PWs)   bands (ev):

   -23.7750 -23.7702  -9.3376  -9.2103  -9.1519  -9.0145  -8.9610  -8.9272
    -5.6389  -5.0002  -4.6013  -4.3516  -1.1899  -0.8458  -0.6291  -0.1589
    -0.0879  -0.0378   0.2735   0.4223   0.4380   0.5204   0.5905   0.7420

          k = 0.2500 0.2438 0.3611 ( 24096 PWs)   bands (ev):

   -23.7674 -23.7640  -9.2898  -9.2471  -9.2398  -9.1074  -9.0689  -9.0102
    -5.2169  -4.7643  -4.6179  -4.5150  -1.2241  -0.9792  -0.8802  -0.3137
    -0.1525   0.0289   0.1329   0.3589   0.4593   0.5745   0.7287   0.8159

          k = 0.2500 0.2438-0.7221 ( 24132 PWs)   bands (ev):

   -23.7588 -23.7588  -9.5051  -9.4800  -9.1031  -9.0597  -9.0436  -9.0359
    -5.0418  -4.8495  -4.4926  -4.2947  -1.5099  -1.4251  -0.6557  -0.5418
    -0.0209  -0.0171   0.3422   0.4108   0.5132   0.5606   0.6973   0.7283

          k = 0.2500-0.4875 0.0000 ( 24074 PWs)   bands (ev):

   -23.7726 -23.7726  -9.3109  -9.3109  -9.0519  -9.0519  -8.9438  -8.9438
    -5.2646  -5.2646  -4.5749  -4.5749  -0.9012  -0.9012  -0.3698  -0.3698
    -0.1554  -0.1554   0.3338   0.3338   0.5798   0.5798   0.5986   0.5986

          k = 0.2500-0.4875 0.3611 ( 24112 PWs)   bands (ev):

   -23.7657 -23.7657  -9.2838  -9.2838  -9.1752  -9.1752  -9.0252  -9.0252
    -4.9918  -4.9918  -4.5809  -4.5809  -1.1319  -1.1319  -0.5435  -0.5435
    -0.0084  -0.0084   0.3243   0.3243   0.4727   0.4727   0.7002   0.7002

          k = 0.2500-0.4875-0.7221 ( 24088 PWs)   bands (ev):

   -23.7587 -23.7587  -9.4885  -9.4885  -9.0838  -9.0838  -9.0422  -9.0422
    -5.0514  -5.0514  -4.2766  -4.2766  -1.3939  -1.3939  -0.6622  -0.6622
     0.0982   0.0982   0.2278   0.2278   0.5548   0.5548   0.7158   0.7158

          k =-0.5000 0.0000 0.0000 ( 24112 PWs)   bands (ev):

   -23.7726 -23.7726  -9.2059  -9.2059  -9.1662  -9.1662  -8.9442  -8.9442
    -5.3402  -5.3402  -4.4212  -4.4212  -1.0542  -1.0542  -0.2409  -0.2409
     0.1336   0.1336   0.1498   0.1498   0.2432   0.2432   0.6747   0.6747

          k =-0.5000 0.0000 0.3611 ( 24132 PWs)   bands (ev):

   -23.7657 -23.7657  -9.3003  -9.3003  -9.1317  -9.1317  -9.0564  -9.0564
    -4.9457  -4.9457  -4.5942  -4.5942  -1.1855  -1.1855  -0.6062  -0.6062
    -0.0061  -0.0061   0.1900   0.1900   0.5750   0.5750   0.7960   0.7960

          k =-0.5000 0.0000-0.7221 ( 24120 PWs)   bands (ev):

   -23.7587 -23.7587  -9.5158  -9.5158  -9.0677  -9.0677  -9.0305  -9.0305
    -4.8695  -4.8695  -4.4455  -4.4455  -1.7515  -1.7515  -0.2752  -0.2752
     0.0265   0.0265   0.1972   0.1972   0.6938   0.6938   0.7064   0.7064

          k =-0.5000 0.2438 0.0000 ( 24064 PWs)   bands (ev):

   -23.7726 -23.7726  -9.3092  -9.3092  -9.0583  -9.0583  -8.9438  -8.9438
    -5.3089  -5.3089  -4.4859  -4.4859  -0.9437  -0.9437  -0.2473  -0.2473
    -0.0869  -0.0869   0.1086   0.1086   0.4872   0.4872   0.6541   0.6541

          k =-0.5000 0.2438 0.3611 ( 24110 PWs)   bands (ev):

   -23.7657 -23.7657  -9.2866  -9.2866  -9.1798  -9.1798  -9.0240  -9.0240
    -4.9021  -4.9021  -4.6436  -4.6436  -1.1910  -1.1910  -0.5765  -0.5765
     0.0288   0.0288   0.2373   0.2373   0.5676   0.5676   0.7254   0.7254

          k =-0.5000 0.2438-0.7221 ( 24144 PWs)   bands (ev):

   -23.7587 -23.7587  -9.4939  -9.4939  -9.0867  -9.0867  -9.0414  -9.0414
    -4.8856  -4.8856  -4.4204  -4.4204  -1.6453  -1.6453  -0.4915  -0.4915
     0.0714   0.0714   0.2727   0.2727   0.6268   0.6268   0.7701   0.7701

          k =-0.5000-0.4875 0.0000 ( 24076 PWs)   bands (ev):

   -23.7726 -23.7726  -9.3579  -9.3579  -9.0050  -9.0050  -8.9434  -8.9434
    -5.2730  -5.2730  -4.5539  -4.5539  -0.7860  -0.7860  -0.4017  -0.4017
    -0.1915  -0.1915   0.3001   0.3001   0.4956   0.4956   0.6158   0.6158

          k =-0.5000-0.4875 0.3611 ( 24128 PWs)   bands (ev):

   -23.7656 -23.7656  -9.2596  -9.2596  -9.2278  -9.2278  -9.0050  -9.0050
    -4.8302  -4.8302  -4.7208  -4.7208  -1.1790  -1.1790  -0.6157  -0.6157
     0.1841   0.1841   0.3252   0.3252   0.4722   0.4722   0.6319   0.6319

          k =-0.5000-0.4875-0.7221 ( 24112 PWs)   bands (ev):

   -23.7587 -23.7587  -9.4689  -9.4689  -9.1123  -9.1123  -9.0488  -9.0488
    -4.9009  -4.9009  -4.3958  -4.3958  -1.4827  -1.4827  -0.7926  -0.7926
     0.3017   0.3017   0.3490   0.3490   0.4948   0.4948   0.7350   0.7350

     highest occupied level (ev):     0.8881

!    total energy              =    -156.47485744 Ry
     estimated scf accuracy    <          5.9E-13 Ry

     The total energy is the sum of the following terms:
     one-electron contribution =     -21.47003388 Ry
     hartree contribution      =      25.27220033 Ry
     xc contribution           =     -49.14479090 Ry
     ewald contribution        =    -111.13223299 Ry

     convergence has been achieved in   5 iterations

     Forces acting on atoms (cartesian axes, Ry/au):

     atom    1 type  2   force =     0.00000000    0.00000000    0.00002547
     atom    2 type  2   force =     0.00000000    0.00000000   -0.00002547
     atom    3 type  1   force =    -0.00000479    0.00000325    0.00003052
     atom    4 type  1   force =     0.00000479   -0.00000325    0.00003052
     atom    5 type  1   force =    -0.00000479   -0.00000325   -0.00003052
     atom    6 type  1   force =     0.00000479    0.00000325   -0.00003052
     atom    7 type  3   force =    -0.00000003    0.00000365   -0.00002049
     atom    8 type  3   force =     0.00000003   -0.00000365   -0.00002049
     atom    9 type  3   force =    -0.00000003   -0.00000365    0.00002049
     atom   10 type  3   force =     0.00000003    0.00000365    0.00002049
     atom   11 type  3   force =    -0.00000821    0.00000356   -0.00008672
     atom   12 type  3   force =     0.00000821   -0.00000356   -0.00008672
     atom   13 type  3   force =    -0.00000821   -0.00000356    0.00008672
     atom   14 type  3   force =     0.00000821    0.00000356    0.00008672
     atom   15 type  3   force =     0.00005837    0.00004632    0.00002846
     atom   16 type  3   force =    -0.00005837   -0.00004632    0.00002846
     atom   17 type  3   force =     0.00005837   -0.00004632   -0.00002846
     atom   18 type  3   force =    -0.00005837    0.00004632   -0.00002846
     atom   19 type  3   force =     0.00004715    0.00004734    0.00001352
     atom   20 type  3   force =    -0.00004715   -0.00004734    0.00001352
     atom   21 type  3   force =     0.00004715   -0.00004734   -0.00001352
     atom   22 type  3   force =    -0.00004715    0.00004734   -0.00001352

     Total force =     0.000285     Total SCF correction =     0.000002


     Computing stress (Cartesian axis) and pressure

          total   stress  (Ry/bohr**3)                   (kbar)     P=       -0.03
  -0.00000021   0.00000000   0.00000000           -0.03        0.00        0.00
   0.00000000  -0.00000018   0.00000000            0.00       -0.03        0.00
   0.00000000   0.00000000  -0.00000015            0.00        0.00       -0.02

     Energy error            =      3.1E-07 Ry
     Gradient error          =      8.7E-05 Ry/Bohr
     Cell gradient error     =      3.1E-02 kbar

     number of scf cycles    =   4
     number of bfgs steps    =   3

     enthalpy           old  =    -156.4748571334 Ry
     enthalpy           new  =    -156.4748574420 Ry

     CASE: enthalpy          _new < enthalpy          _old

     new trust radius        =       0.0004309521 bohr
     new conv_thr            =            1.0E-12 Ry

     new unit-cell volume =   1427.04229 a.u.^3 (   211.46585 Ang^3 )
     density =      2.62294 g/cm^3

CELL_PARAMETERS (alat= 12.61953421)
   0.999994900   0.000000000   0.000000000
   0.000000000   1.025565149   0.000000000
   0.000000000   0.000000000   0.692382096

ATOMIC_POSITIONS (crystal)
Ba               0.5000000000        0.5000000000        0.5000845066
Ba               0.0000000000        0.0000000000        0.9999154934
B                0.6102580844        0.2392019714        0.0000560681
B                0.3897419156        0.7607980286        0.0000560681
B                0.1102580844        0.2607980286        0.4999439319
B                0.8897419156        0.7392019714        0.4999439319
H                0.4340990530        0.2921546767        0.0002434682
H                0.5659009470        0.7078453233        0.0002434682
H                0.9340990530        0.2078453233        0.4997565318
H                0.0659009470        0.7921546767        0.4997565318
H                0.7220625461        0.3835525295        0.0000267984
H                0.2779374539        0.6164474705        0.0000267984
H                0.2220625461        0.1164474705        0.4999732016
H                0.7779374539        0.8835525295        0.4999732016
H                0.6392283464        0.1420832049        0.7804889756
H                0.3607716536        0.8579167951        0.7804889756
H                0.1392283464        0.3579167951        0.7195110244
H                0.8607716536        0.6420832049        0.7195110244
H                0.3605149865        0.8579440891        0.2195194235
H                0.6394850135        0.1420559109        0.2195194235
H                0.8605149865        0.6420559109        0.2804805765
H                0.1394850135        0.3579440891        0.2804805765



     Writing config-only to output data dir ./pwscf.save/ :
     XML data file
     NEW-OLD atomic charge density approx. for the potential

     total cpu time spent up to now is      460.3 secs

     Self-consistent Calculation

     iteration #  1     ecut=   100.00 Ry     beta= 0.70
     Davidson diagonalization with overlap
     ethr =  1.00E-06,  avg # of iterations =  1.0

     Threshold (ethr) on eigenvalues was too large:
     Diagonalizing with lowered threshold

     Davidson diagonalization with overlap
     ethr =  4.87E-11,  avg # of iterations =  4.2

     total cpu time spent up to now is      489.4 secs

     total energy              =    -156.47485772 Ry
     estimated scf accuracy    <       0.00000004 Ry

     iteration #  2     ecut=   100.00 Ry     beta= 0.70
     Davidson diagonalization with overlap
     ethr =  8.50E-11,  avg # of iterations =  2.0

     total cpu time spent up to now is      502.2 secs

     total energy              =    -156.47485772 Ry
     estimated scf accuracy    <          2.4E-09 Ry

     iteration #  3     ecut=   100.00 Ry     beta= 0.70
     Davidson diagonalization with overlap
     ethr =  4.96E-12,  avg # of iterations =  2.0

     total cpu time spent up to now is      514.9 secs

     total energy              =    -156.47485772 Ry
     estimated scf accuracy    <          1.7E-10 Ry

     iteration #  4     ecut=   100.00 Ry     beta= 0.70
     Davidson diagonalization with overlap
     ethr =  3.60E-13,  avg # of iterations =  4.3

     total cpu time spent up to now is      530.3 secs

     total energy              =    -156.47485772 Ry
     estimated scf accuracy    <          9.6E-12 Ry

     iteration #  5     ecut=   100.00 Ry     beta= 0.70
     Davidson diagonalization with overlap
     ethr =  1.00E-13,  avg # of iterations =  3.3

     total cpu time spent up to now is      542.0 secs

     total energy              =    -156.47485772 Ry
     estimated scf accuracy    <          1.3E-12 Ry

     iteration #  6     ecut=   100.00 Ry     beta= 0.70
     Davidson diagonalization with overlap
     ethr =  1.00E-13,  avg # of iterations =  1.0

     total cpu time spent up to now is      551.8 secs

     End of self-consistent calculation

          k = 0.0000 0.0000 0.0000 ( 24047 PWs)   bands (ev):

   -23.7772 -23.7676  -9.3487  -9.2554  -9.0485  -9.0072  -8.9781  -8.9107
    -5.9845  -5.0151  -4.3027  -4.1564  -1.6838  -0.7614  -0.6817  -0.3366
     0.0498   0.0708   0.1212   0.2393   0.4079   0.8270   0.8421   0.8847

          k = 0.0000 0.0000 0.3611 ( 24116 PWs)   bands (ev):

   -23.7689 -23.7621  -9.2477  -9.2472  -9.2220  -9.1844  -9.0292  -9.0065
    -5.4616  -4.7405  -4.4863  -4.3948  -1.2904  -1.0305  -0.5735  -0.5207
    -0.3692  -0.2469   0.1276   0.4216   0.6167   0.6597   0.7383   0.8882

          k = 0.0000 0.0000-0.7221 ( 24112 PWs)   bands (ev):

   -23.7585 -23.7585  -9.4781  -9.4779  -9.0944  -9.0944  -9.0388  -9.0388
    -4.7277  -4.7272  -4.6552  -4.6547  -1.0526  -1.0516  -1.0401  -1.0377
     0.0350   0.0367   0.1222   0.1241   0.7045   0.7045   0.7176   0.7191

          k = 0.0000 0.2438 0.0000 ( 24101 PWs)   bands (ev):

   -23.7758 -23.7690  -9.3179  -9.2228  -9.1066  -9.0452  -8.9680  -8.9203
    -5.7764  -4.9200  -4.6021  -4.2926  -1.3091  -0.8716  -0.8380  -0.0489
    -0.0317  -0.0113   0.2874   0.4128   0.4930   0.5020   0.7369   0.8130

          k = 0.0000 0.2438 0.3611 ( 24100 PWs)   bands (ev):

   -23.7679 -23.7630  -9.2964  -9.2550  -9.1687  -9.1543  -9.0394  -9.0301
    -5.3535  -4.8184  -4.5288  -4.4352  -1.0968  -1.0554  -0.8607  -0.2764
    -0.2317  -0.0365  -0.0223   0.4754   0.5494   0.6009   0.7055   0.7636

          k = 0.0000 0.2438-0.7221 ( 24080 PWs)   bands (ev):

   -23.7585 -23.7585  -9.4925  -9.4923  -9.0744  -9.0744  -9.0378  -9.0378
    -5.0296  -5.0296  -4.3410  -4.3410  -1.1791  -1.1782  -0.8556  -0.8542
     0.1134   0.1140   0.1618   0.1635   0.5252   0.5263   0.7127   0.7130

          k = 0.0000-0.4875 0.0000 ( 24118 PWs)   bands (ev):

   -23.7724 -23.7724  -9.2302  -9.2302  -9.1318  -9.1318  -8.9439  -8.9439
    -5.2577  -5.2577  -4.5930  -4.5930  -0.9967  -0.9967  -0.3597  -0.3597
    -0.1152  -0.1152   0.4053   0.4053   0.5402   0.5402   0.6648   0.6648

          k = 0.0000-0.4875 0.3611 ( 24070 PWs)   bands (ev):

   -23.7654 -23.7654  -9.2958  -9.2958  -9.1077  -9.1077  -9.0719  -9.0719
    -5.0845  -5.0845  -4.5085  -4.5085  -1.0395  -1.0395  -0.6225  -0.6225
     0.0179   0.0179   0.3059   0.3059   0.4619   0.4619   0.6801   0.6801

          k = 0.0000-0.4875-0.7221 ( 24052 PWs)   bands (ev):

   -23.7585 -23.7585  -9.5057  -9.5057  -9.0575  -9.0575  -9.0349  -9.0349
    -5.1663  -5.1663  -4.1922  -4.1922  -1.2723  -1.2723  -0.6000  -0.6000
     0.0339   0.0339   0.2372   0.2372   0.3271   0.3271   0.7503   0.7503

          k = 0.2500 0.0000 0.0000 ( 24106 PWs)   bands (ev):

   -23.7758 -23.7690  -9.3074  -9.2359  -9.0952  -9.0638  -8.9680  -8.9203
    -5.7852  -5.0434  -4.3466  -4.3193  -1.4875  -0.6121  -0.5942  -0.4659
     0.0933   0.1317   0.1969   0.2640   0.3644   0.3909   0.7900   0.8275

          k = 0.2500 0.0000 0.3611 ( 24083 PWs)   bands (ev):

   -23.7678 -23.7630  -9.2869  -9.2676  -9.1992  -9.1288  -9.0567  -9.0172
    -5.3073  -4.7217  -4.5305  -4.5213  -1.2612  -1.0124  -0.8661  -0.3262
    -0.3130  -0.0299   0.2006   0.3387   0.4815   0.6123   0.8095   0.8383

          k = 0.2500 0.0000-0.7221 ( 24124 PWs)   bands (ev):

   -23.7585 -23.7585  -9.4976  -9.4975  -9.0795  -9.0795  -9.0352  -9.0352
    -4.8220  -4.8216  -4.5283  -4.5279  -1.5340  -1.5334  -0.5824  -0.5818
     0.0300   0.0311   0.3732   0.3748   0.5013   0.5013   0.7503   0.7514

          k = 0.2500 0.2438 0.0000 ( 24073 PWs)   bands (ev):

   -23.7747 -23.7699  -9.3374  -9.2100  -9.1517  -9.0143  -8.9607  -8.9270
    -5.6388  -5.0000  -4.6011  -4.3513  -1.1899  -0.8457  -0.6289  -0.1588
    -0.0876  -0.0376   0.2737   0.4226   0.4382   0.5206   0.5907   0.7421

          k = 0.2500 0.2438 0.3611 ( 24096 PWs)   bands (ev):

   -23.7671 -23.7637  -9.2896  -9.2469  -9.2396  -9.1071  -9.0687  -9.0099
    -5.2167  -4.7641  -4.6177  -4.5148  -1.2239  -0.9791  -0.8802  -0.3135
    -0.1524   0.0291   0.1331   0.3591   0.4595   0.5747   0.7289   0.8161

          k = 0.2500 0.2438-0.7221 ( 24132 PWs)   bands (ev):

   -23.7585 -23.7585  -9.5049  -9.4798  -9.1029  -9.0595  -9.0434  -9.0356
    -5.0417  -4.8493  -4.4924  -4.2944  -1.5098  -1.4250  -0.6556  -0.5417
    -0.0207  -0.0170   0.3423   0.4109   0.5133   0.5608   0.6976   0.7285

          k = 0.2500-0.4875 0.0000 ( 24074 PWs)   bands (ev):

   -23.7723 -23.7723  -9.3107  -9.3107  -9.0516  -9.0516  -8.9435  -8.9435
    -5.2644  -5.2644  -4.5747  -4.5747  -0.9011  -0.9011  -0.3697  -0.3697
    -0.1552  -0.1552   0.3340   0.3340   0.5801   0.5801   0.5988   0.5988

          k = 0.2500-0.4875 0.3611 ( 24112 PWs)   bands (ev):

   -23.7654 -23.7654  -9.2836  -9.2836  -9.1750  -9.1750  -9.0250  -9.0250
    -4.9916  -4.9916  -4.5806  -4.5806  -1.1318  -1.1318  -0.5434  -0.5434
    -0.0082  -0.0082   0.3245   0.3245   0.4728   0.4728   0.7005   0.7005

          k = 0.2500-0.4875-0.7221 ( 24088 PWs)   bands (ev):

   -23.7585 -23.7585  -9.4883  -9.4883  -9.0836  -9.0836  -9.0420  -9.0420
    -5.0513  -5.0513  -4.2764  -4.2764  -1.3938  -1.3938  -0.6621  -0.6621
     0.0983   0.0983   0.2281   0.2281   0.5549   0.5549   0.7161   0.7161

          k =-0.5000 0.0000 0.0000 ( 24112 PWs)   bands (ev):

   -23.7723 -23.7723  -9.2057  -9.2057  -9.1659  -9.1659  -8.9440  -8.9440
    -5.3400  -5.3400  -4.4209  -4.4209  -1.0542  -1.0542  -0.2407  -0.2407
     0.1338   0.1338   0.1500   0.1500   0.2434   0.2434   0.6748   0.6748

          k =-0.5000 0.0000 0.3611 ( 24132 PWs)   bands (ev):

   -23.7654 -23.7654  -9.3001  -9.3001  -9.1314  -9.1314  -9.0562  -9.0562
    -4.9455  -4.9455  -4.5940  -4.5940  -1.1854  -1.1854  -0.6062  -0.6062
    -0.0059  -0.0059   0.1901   0.1901   0.5752   0.5752   0.7962   0.7962

          k =-0.5000 0.0000-0.7221 ( 24120 PWs)   bands (ev):

   -23.7585 -23.7585  -9.5157  -9.5157  -9.0674  -9.0674  -9.0303  -9.0303
    -4.8693  -4.8693  -4.4452  -4.4452  -1.7514  -1.7514  -0.2751  -0.2751
     0.0267   0.0267   0.1973   0.1973   0.6940   0.6940   0.7066   0.7066

          k =-0.5000 0.2438 0.0000 ( 24064 PWs)   bands (ev):

   -23.7723 -23.7723  -9.3090  -9.3090  -9.0580  -9.0580  -8.9435  -8.9435
    -5.3087  -5.3087  -4.4856  -4.4856  -0.9437  -0.9437  -0.2471  -0.2471
    -0.0867  -0.0867   0.1088   0.1088   0.4875   0.4875   0.6542   0.6542

          k =-0.5000 0.2438 0.3611 ( 24110 PWs)   bands (ev):

   -23.7654 -23.7654  -9.2864  -9.2864  -9.1795  -9.1795  -9.0238  -9.0238
    -4.9019  -4.9019  -4.6434  -4.6434  -1.1908  -1.1908  -0.5764  -0.5764
     0.0289   0.0289   0.2374   0.2374   0.5678   0.5678   0.7256   0.7256

          k =-0.5000 0.2438-0.7221 ( 24144 PWs)   bands (ev):

   -23.7585 -23.7585  -9.4937  -9.4937  -9.0865  -9.0865  -9.0412  -9.0412
    -4.8854  -4.8854  -4.4202  -4.4202  -1.6452  -1.6452  -0.4914  -0.4914
     0.0716   0.0716   0.2729   0.2729   0.6270   0.6270   0.7703   0.7703

          k =-0.5000-0.4875 0.0000 ( 24076 PWs)   bands (ev):

   -23.7723 -23.7723  -9.3577  -9.3577  -9.0047  -9.0047  -8.9431  -8.9431
    -5.2729  -5.2729  -4.5536  -4.5536  -0.7860  -0.7860  -0.4016  -0.4016
    -0.1913  -0.1913   0.3003   0.3003   0.4957   0.4957   0.6160   0.6160

          k =-0.5000-0.4875 0.3611 ( 24128 PWs)   bands (ev):

   -23.7654 -23.7654  -9.2594  -9.2594  -9.2276  -9.2276  -9.0048  -9.0048
    -4.8300  -4.8300  -4.7206  -4.7206  -1.1789  -1.1789  -0.6156  -0.6156
     0.1843   0.1843   0.3253   0.3253   0.4724   0.4724   0.6321   0.6321

          k =-0.5000-0.4875-0.7221 ( 24112 PWs)   bands (ev):

   -23.7584 -23.7584  -9.4687  -9.4687  -9.1121  -9.1121  -9.0486  -9.0486
    -4.9007  -4.9007  -4.3956  -4.3956  -1.4826  -1.4826  -0.7924  -0.7924
     0.3019   0.3019   0.3491   0.3491   0.4950   0.4950   0.7353   0.7353

     highest occupied level (ev):     0.8882

!    total energy              =    -156.47485772 Ry
     estimated scf accuracy    <          8.9E-14 Ry

     The total energy is the sum of the following terms:
     one-electron contribution =     -21.46801711 Ry
     hartree contribution      =      25.27153194 Ry
     xc contribution           =     -49.14478325 Ry
     ewald contribution        =    -111.13358931 Ry

     convergence has been achieved in   6 iterations

     Forces acting on atoms (cartesian axes, Ry/au):

[...]

          total   stress  (Ry/bohr**3)                   (kbar)     P=       -0.01
  -0.00000009   0.00000000   0.00000000           -0.01        0.00        0.00
   0.00000000  -0.00000012   0.00000000            0.00       -0.02        0.00
   0.00000000   0.00000000   0.00000004            0.00        0.00        0.01

     Energy error            =      1.2E-08 Ry
     Gradient error          =      2.5E-05 Ry/Bohr
     Cell gradient error     =      1.8E-02 kbar

     number of scf cycles    =   7
     number of bfgs steps    =   6

     enthalpy           old  =    -156.4748578011 Ry
     enthalpy           new  =    -156.4748578131 Ry

     CASE: enthalpy          _new < enthalpy          _old


     WARNING: bfgs curvature condition failed, Theta= 0.971
     Message from routine bfgs :: compute_trust_radius:
     history already reset at previous step: stopping
     small trust_radius: resetting bfgs history

     new trust radius        =       0.0000295941 bohr
     new conv_thr            =            1.0E-12 Ry

     new unit-cell volume =   1426.98189 a.u.^3 (   211.45690 Ang^3 )
     density =      2.62305 g/cm^3

CELL_PARAMETERS (alat= 12.61953421)
   0.999976508   0.000000000   0.000000000
   0.000000000   1.025546826   0.000000000
   0.000000000   0.000000000   0.692377897

ATOMIC_POSITIONS (crystal)
Ba               0.5000000000        0.5000000000        0.5000991656
Ba               0.0000000000        0.0000000000        0.9999008344
B                0.6102570162        0.2392023802        0.0000656569
B                0.3897429838        0.7607976198        0.0000656569
B                0.1102570162        0.2607976198        0.4999343431
B                0.8897429838        0.7392023802        0.4999343431
H                0.4340972523        0.2921557288        0.0002309332
H                0.5659027477        0.7078442712        0.0002309332
H                0.9340972523        0.2078442712        0.4997690668
H                0.0659027477        0.7921557288        0.4997690668
H                0.7220602679        0.3835550091       -0.0000083716
H                0.2779397321        0.6164449909       -0.0000083716
H                0.2220602679        0.1164449909        0.5000083716
H                0.7779397321        0.8835550091        0.5000083716
H                0.6392499245        0.1420943949        0.7804984139
H                0.3607500755        0.8579056051        0.7804984139
H                0.1392499245        0.3579056051        0.7195015861
H                0.8607500755        0.6420943949        0.7195015861
H                0.3605328308        0.8579559148        0.2195248482
H                0.6394671692        0.1420440852        0.2195248482
H                0.8605328308        0.6420440852        0.2804751518
H                0.1394671692        0.3579559148        0.2804751518



     Writing config-only to output data dir ./pwscf.save/ :
     XML data file
     NEW-OLD atomic charge density approx. for the potential

     total cpu time spent up to now is      735.6 secs

     Self-consistent Calculation

     iteration #  1     ecut=   100.00 Ry     beta= 0.70
     Davidson diagonalization with overlap
     ethr =  1.00E-06,  avg # of iterations =  1.0

     Threshold (ethr) on eigenvalues was too large:
     Diagonalizing with lowered threshold

     Davidson diagonalization with overlap
     ethr =  7.53E-13,  avg # of iterations =  4.0

     total cpu time spent up to now is      764.2 secs

     total energy              =    -156.47485782 Ry
     estimated scf accuracy    <          3.5E-10 Ry

     iteration #  2     ecut=   100.00 Ry     beta= 0.70
     Davidson diagonalization with overlap
     ethr =  7.25E-13,  avg # of iterations =  2.0

     total cpu time spent up to now is      776.9 secs

     total energy              =    -156.47485782 Ry
     estimated scf accuracy    <          2.6E-11 Ry

     iteration #  3     ecut=   100.00 Ry     beta= 0.70
     Davidson diagonalization with overlap
     ethr =  1.00E-13,  avg # of iterations =  2.0

     total cpu time spent up to now is      789.6 secs

     total energy              =    -156.47485782 Ry
     estimated scf accuracy    <          1.6E-12 Ry

     iteration #  4     ecut=   100.00 Ry     beta= 0.70
     Davidson diagonalization with overlap
     ethr =  1.00E-13,  avg # of iterations =  1.0

     total cpu time spent up to now is      799.5 secs

     End of self-consistent calculation

          k = 0.0000 0.0000 0.0000 ( 24047 PWs)   bands (ev):

   -23.7768 -23.7671  -9.3484  -9.2551  -9.0481  -9.0068  -8.9777  -8.9103
    -5.9844  -5.0149  -4.3024  -4.1561  -1.6837  -0.7612  -0.6815  -0.3365
     0.0500   0.0711   0.1215   0.2395   0.4081   0.8272   0.8424   0.8850

          k = 0.0000 0.0000 0.3611 ( 24116 PWs)   bands (ev):

   -23.7685 -23.7616  -9.2474  -9.2469  -9.2216  -9.1841  -9.0288  -9.0061
    -5.4614  -4.7403  -4.4860  -4.3945  -1.2902  -1.0303  -0.5733  -0.5205
    -0.3691  -0.2467   0.1278   0.4219   0.6170   0.6600   0.7386   0.8885

          k = 0.0000 0.0000-0.7221 ( 24112 PWs)   bands (ev):

   -23.7581 -23.7581  -9.4777  -9.4776  -9.0941  -9.0940  -9.0384  -9.0384
    -4.7275  -4.7270  -4.6550  -4.6545  -1.0521  -1.0517  -1.0396  -1.0379
     0.0357   0.0365   0.1225   0.1243   0.7047   0.7048   0.7185   0.7189

          k = 0.0000 0.2438 0.0000 ( 24101 PWs)   bands (ev):

   -23.7753 -23.7685  -9.3176  -9.2224  -9.1062  -9.0448  -8.9676  -8.9199
    -5.7762  -4.9198  -4.6018  -4.2924  -1.3090  -0.8714  -0.8378  -0.0487
    -0.0315  -0.0112   0.2876   0.4131   0.4932   0.5022   0.7372   0.8133

          k = 0.0000 0.2438 0.3611 ( 24100 PWs)   bands (ev):

   -23.7674 -23.7626  -9.2961  -9.2547  -9.1683  -9.1540  -9.0390  -9.0298
    -5.3533  -4.8182  -4.5285  -4.4350  -1.0966  -1.0552  -0.8605  -0.2762
    -0.2315  -0.0362  -0.0221   0.4757   0.5496   0.6012   0.7058   0.7639

          k = 0.0000 0.2438-0.7221 ( 24080 PWs)   bands (ev):

   -23.7581 -23.7581  -9.4922  -9.4920  -9.0740  -9.0740  -9.0374  -9.0374
    -5.0294  -5.0294  -4.3407  -4.3407  -1.1788  -1.1782  -0.8550  -0.8543
     0.1139   0.1140   0.1621   0.1637   0.5260   0.5261   0.7129   0.7132

          k = 0.0000-0.4875 0.0000 ( 24118 PWs)   bands (ev):

   -23.7719 -23.7719  -9.2298  -9.2298  -9.1315  -9.1315  -8.9436  -8.9436
    -5.2575  -5.2575  -4.5928  -4.5928  -0.9965  -0.9965  -0.3594  -0.3594
    -0.1150  -0.1150   0.4055   0.4055   0.5404   0.5404   0.6650   0.6650

          k = 0.0000-0.4875 0.3611 ( 24070 PWs)   bands (ev):

   -23.7650 -23.7650  -9.2955  -9.2955  -9.1073  -9.1073  -9.0715  -9.0715
    -5.0843  -5.0843  -4.5082  -4.5082  -1.0393  -1.0393  -0.6223  -0.6223
     0.0181   0.0181   0.3061   0.3061   0.4622   0.4622   0.6804   0.6804

          k = 0.0000-0.4875-0.7221 ( 24052 PWs)   bands (ev):

   -23.7581 -23.7581  -9.5053  -9.5053  -9.0571  -9.0571  -9.0345  -9.0345
    -5.1661  -5.1661  -4.1919  -4.1919  -1.2722  -1.2722  -0.5997  -0.5997
     0.0341   0.0341   0.2375   0.2375   0.3274   0.3274   0.7506   0.7506

          k = 0.2500 0.0000 0.0000 ( 24106 PWs)   bands (ev):

   -23.7753 -23.7685  -9.3071  -9.2355  -9.0948  -9.0634  -8.9676  -8.9199
    -5.7851  -5.0432  -4.3464  -4.3190  -1.4874  -0.6119  -0.5939  -0.4657
     0.0935   0.1320   0.1972   0.2642   0.3646   0.3912   0.7903   0.8277

          k = 0.2500 0.0000 0.3611 ( 24083 PWs)   bands (ev):

   -23.7674 -23.7626  -9.2865  -9.2673  -9.1989  -9.1284  -9.0563  -9.0169
    -5.3071  -4.7215  -4.5302  -4.5211  -1.2610  -1.0122  -0.8659  -0.3260
    -0.3127  -0.0296   0.2008   0.3389   0.4818   0.6125   0.8097   0.8386

          k = 0.2500 0.0000-0.7221 ( 24124 PWs)   bands (ev):

   -23.7581 -23.7581  -9.4973  -9.4972  -9.0792  -9.0791  -9.0348  -9.0348
    -4.8218  -4.8214  -4.5280  -4.5277  -1.5338  -1.5333  -0.5821  -0.5816
     0.0306   0.0310   0.3735   0.3749   0.5015   0.5015   0.7510   0.7513

          k = 0.2500 0.2438 0.0000 ( 24073 PWs)   bands (ev):

   -23.7743 -23.7695  -9.3370  -9.2097  -9.1513  -9.0139  -8.9603  -8.9266
    -5.6386  -4.9998  -4.6008  -4.3510  -1.1897  -0.8455  -0.6287  -0.1586
    -0.0874  -0.0373   0.2739   0.4228   0.4384   0.5209   0.5910   0.7424

          k = 0.2500 0.2438 0.3611 ( 24096 PWs)   bands (ev):

   -23.7667 -23.7633  -9.2892  -9.2466  -9.2393  -9.1068  -9.0683  -9.0095
    -5.2165  -4.7638  -4.6175  -4.5146  -1.2238  -0.9789  -0.8800  -0.3133
    -0.1522   0.0293   0.1334   0.3594   0.4597   0.5750   0.7292   0.8163

          k = 0.2500 0.2438-0.7221 ( 24132 PWs)   bands (ev):

   -23.7581 -23.7581  -9.5046  -9.4795  -9.1025  -9.0591  -9.0430  -9.0352
    -5.0415  -4.8491  -4.4922  -4.2941  -1.5096  -1.4248  -0.6554  -0.5415
    -0.0204  -0.0167   0.3426   0.4112   0.5136   0.5610   0.6979   0.7287

          k = 0.2500-0.4875 0.0000 ( 24074 PWs)   bands (ev):

   -23.7719 -23.7719  -9.3103  -9.3103  -9.0512  -9.0512  -8.9431  -8.9431
    -5.2643  -5.2643  -4.5745  -4.5745  -0.9009  -0.9009  -0.3695  -0.3695
    -0.1550  -0.1550   0.3342   0.3342   0.5803   0.5803   0.5991   0.5991

          k = 0.2500-0.4875 0.3611 ( 24112 PWs)   bands (ev):

   -23.7650 -23.7650  -9.2833  -9.2833  -9.1747  -9.1747  -9.0246  -9.0246
    -4.9914  -4.9914  -4.5804  -4.5804  -1.1316  -1.1316  -0.5432  -0.5432
    -0.0079  -0.0079   0.3247   0.3247   0.4731   0.4731   0.7008   0.7008

          k = 0.2500-0.4875-0.7221 ( 24088 PWs)   bands (ev):

   -23.7580 -23.7580  -9.4880  -9.4880  -9.0832  -9.0832  -9.0416  -9.0416
    -5.0511  -5.0511  -4.2761  -4.2761  -1.3937  -1.3937  -0.6618  -0.6618
     0.0985   0.0985   0.2283   0.2283   0.5552   0.5552   0.7164   0.7164

          k =-0.5000 0.0000 0.0000 ( 24112 PWs)   bands (ev):

   -23.7719 -23.7719  -9.2053  -9.2053  -9.1656  -9.1656  -8.9436  -8.9436
    -5.3398  -5.3398  -4.4207  -4.4207  -1.0540  -1.0540  -0.2405  -0.2405
     0.1341   0.1341   0.1503   0.1503   0.2437   0.2437   0.6751   0.6751

          k =-0.5000 0.0000 0.3611 ( 24132 PWs)   bands (ev):

   -23.7650 -23.7650  -9.2998  -9.2998  -9.1311  -9.1311  -9.0558  -9.0558
    -4.9453  -4.9453  -4.5937  -4.5937  -1.1852  -1.1852  -0.6060  -0.6060
    -0.0056  -0.0056   0.1903   0.1903   0.5755   0.5755   0.7965   0.7965

          k =-0.5000 0.0000-0.7221 ( 24120 PWs)   bands (ev):

   -23.7580 -23.7580  -9.5154  -9.5154  -9.0671  -9.0671  -9.0299  -9.0299
    -4.8691  -4.8691  -4.4450  -4.4450  -1.7512  -1.7512  -0.2749  -0.2749
     0.0270   0.0270   0.1975   0.1975   0.6943   0.6943   0.7069   0.7069

          k =-0.5000 0.2438 0.0000 ( 24064 PWs)   bands (ev):

   -23.7719 -23.7719  -9.3087  -9.3087  -9.0576  -9.0576  -8.9432  -8.9432
    -5.3086  -5.3086  -4.4853  -4.4853  -0.9435  -0.9435  -0.2469  -0.2469
    -0.0865  -0.0865   0.1090   0.1090   0.4877   0.4877   0.6545   0.6545

          k =-0.5000 0.2438 0.3611 ( 24110 PWs)   bands (ev):

   -23.7650 -23.7650  -9.2861  -9.2861  -9.1792  -9.1792  -9.0234  -9.0234
    -4.9016  -4.9016  -4.6431  -4.6431  -1.1907  -1.1907  -0.5763  -0.5763
     0.0292   0.0292   0.2377   0.2377   0.5681   0.5681   0.7259   0.7259

          k =-0.5000 0.2438-0.7221 ( 24144 PWs)   bands (ev):

   -23.7580 -23.7580  -9.4934  -9.4934  -9.0861  -9.0861  -9.0408  -9.0408
    -4.8852  -4.8852  -4.4199  -4.4199  -1.6450  -1.6450  -0.4911  -0.4911
     0.0718   0.0718   0.2731   0.2731   0.6273   0.6273   0.7706   0.7706

          k =-0.5000-0.4875 0.0000 ( 24076 PWs)   bands (ev):

   -23.7719 -23.7719  -9.3574  -9.3574  -9.0043  -9.0043  -8.9427  -8.9427
    -5.2727  -5.2727  -4.5534  -4.5534  -0.7858  -0.7858  -0.4013  -0.4013
    -0.1911  -0.1911   0.3006   0.3006   0.4960   0.4960   0.6163   0.6163

          k =-0.5000-0.4875 0.3611 ( 24128 PWs)   bands (ev):

   -23.7649 -23.7649  -9.2591  -9.2591  -9.2272  -9.2272  -9.0044  -9.0044
    -4.8298  -4.8298  -4.7204  -4.7204  -1.1787  -1.1787  -0.6155  -0.6155
     0.1845   0.1845   0.3256   0.3256   0.4727   0.4727   0.6323   0.6323

          k =-0.5000-0.4875-0.7221 ( 24112 PWs)   bands (ev):

   -23.7580 -23.7580  -9.4684  -9.4684  -9.1118  -9.1118  -9.0482  -9.0482
    -4.9004  -4.9004  -4.3953  -4.3953  -1.4824  -1.4824  -0.7922  -0.7922
     0.3021   0.3021   0.3493   0.3493   0.4953   0.4953   0.7356   0.7356

     highest occupied level (ev):     0.8885

!    total energy              =    -156.47485782 Ry
     estimated scf accuracy    <          7.6E-14 Ry

     The total energy is the sum of the following terms:
     one-electron contribution =     -21.46558871 Ry
     hartree contribution      =      25.27094484 Ry
     xc contribution           =     -49.14498549 Ry
     ewald contribution        =    -111.13522847 Ry

     convergence has been achieved in   4 iterations

     Forces acting on atoms (cartesian axes, Ry/au):

     atom    1 type  2   force =     0.00000000    0.00000000    0.00001308
     atom    2 type  2   force =     0.00000000    0.00000000   -0.00001308
     atom    3 type  1   force =    -0.00000074   -0.00000115   -0.00001258
     atom    4 type  1   force =     0.00000074    0.00000115   -0.00001258
     atom    5 type  1   force =    -0.00000074    0.00000115    0.00001258
     atom    6 type  1   force =     0.00000074   -0.00000115    0.00001258
     atom    7 type  3   force =    -0.00000222   -0.00000221   -0.00001646
     atom    8 type  3   force =     0.00000222    0.00000221   -0.00001646
     atom    9 type  3   force =    -0.00000222    0.00000221    0.00001646
     atom   10 type  3   force =     0.00000222   -0.00000221    0.00001646
     atom   11 type  3   force =    -0.00000323    0.00000341    0.00000561
     atom   12 type  3   force =     0.00000323   -0.00000341    0.00000561
     atom   13 type  3   force =    -0.00000323   -0.00000341   -0.00000561
     atom   14 type  3   force =     0.00000323    0.00000341   -0.00000561
     atom   15 type  3   force =     0.00002383   -0.00000774   -0.00000375
     atom   16 type  3   force =    -0.00002383    0.00000774   -0.00000375
     atom   17 type  3   force =     0.00002383    0.00000774    0.00000375
     atom   18 type  3   force =    -0.00002383   -0.00000774    0.00000375
     atom   19 type  3   force =     0.00002272   -0.00001178   -0.00000595
     atom   20 type  3   force =    -0.00002272    0.00001178   -0.00000595
     atom   21 type  3   force =     0.00002272    0.00001178    0.00000595
     atom   22 type  3   force =    -0.00002272   -0.00001178    0.00000595

     Total force =     0.000087     Total SCF correction =     0.000000


     Computing stress (Cartesian axis) and pressure

          total   stress  (Ry/bohr**3)                   (kbar)     P=       -0.00
  -0.00000006   0.00000000   0.00000000           -0.01        0.00        0.00
   0.00000000  -0.00000009   0.00000000            0.00       -0.01        0.00
   0.00000000   0.00000000   0.00000006            0.00        0.00        0.01

     Message from routine bfgs:
     history already reset at previous step: exiting
     Energy error            =      9.2E-09 Ry
     Gradient error          =      2.4E-05 Ry/Bohr
     Cell gradient error     =      1.3E-02 kbar

     bfgs failed after   8 scf cycles and   7 bfgs steps, convergence not achieved
     (criteria: energy <  1.0E-05 Ry, force <  1.0E-05 Ry/Bohr, cell <  1.0E-01 kbar)

     End of BFGS Geometry Optimization

     Final enthalpy           =    -156.4748578223 Ry

     File ./pwscf.bfgs deleted, as requested
Begin final coordinates
     new unit-cell volume =   1426.98189 a.u.^3 (   211.45690 Ang^3 )
     density =      2.62305 g/cm^3

CELL_PARAMETERS (alat= 12.61953421)
   0.999976508   0.000000000   0.000000000
   0.000000000   1.025546826   0.000000000
   0.000000000   0.000000000   0.692377897

ATOMIC_POSITIONS (crystal)
Ba               0.5000000000        0.5000000000        0.5000991656
Ba               0.0000000000        0.0000000000        0.9999008344
B                0.6102570162        0.2392023802        0.0000656569
B                0.3897429838        0.7607976198        0.0000656569
B                0.1102570162        0.2607976198        0.4999343431
B                0.8897429838        0.7392023802        0.4999343431
H                0.4340972523        0.2921557288        0.0002309332
H                0.5659027477        0.7078442712        0.0002309332
H                0.9340972523        0.2078442712        0.4997690668
H                0.0659027477        0.7921557288        0.4997690668
H                0.7220602679        0.3835550091       -0.0000083716
H                0.2779397321        0.6164449909       -0.0000083716
H                0.2220602679        0.1164449909        0.5000083716
H                0.7779397321        0.8835550091        0.5000083716
H                0.6392499245        0.1420943949        0.7804984139
H                0.3607500755        0.8579056051        0.7804984139
H                0.1392499245        0.3579056051        0.7195015861
H                0.8607500755        0.6420943949        0.7195015861
H                0.3605328308        0.8579559148        0.2195248482
H                0.6394671692        0.1420440852        0.2195248482
H                0.8605328308        0.6420440852        0.2804751518
H                0.1394671692        0.3579559148        0.2804751518
End final coordinates



     Writing config-only to output data dir ./pwscf.save/ :
     XML data file

     Writing all to output data dir ./pwscf.save/ :
     XML data file, charge density, pseudopotentials, collected wavefunctions

     init_run     :      8.11s CPU     10.72s WALL (       1 calls)
     electrons    :    694.33s CPU    700.17s WALL (       8 calls)
     update_pot   :      1.23s CPU      1.34s WALL (       7 calls)
     forces       :     28.44s CPU     28.76s WALL (       8 calls)
     stress       :     68.41s CPU     68.69s WALL (       8 calls)

     Called by init_run:
     wfcinit      :      6.69s CPU      6.78s WALL (       1 calls)
     potinit      :      0.33s CPU      1.18s WALL (       1 calls)
     hinit0       :      0.68s CPU      2.19s WALL (       1 calls)

     Called by electrons:
     c_bands      :    594.56s CPU    598.72s WALL (      51 calls)
     sum_band     :     88.93s CPU     89.83s WALL (      51 calls)
     v_of_rho     :      5.16s CPU      5.49s WALL (      52 calls)
     newd         :      5.96s CPU      6.12s WALL (      52 calls)
     mix_rho      :      0.60s CPU      0.66s WALL (      51 calls)

     Called by c_bands:
     init_us_2    :     14.65s CPU     14.87s WALL (    3213 calls)
     cegterg      :    572.19s CPU    576.11s WALL (    1377 calls)

     Called by *egterg:
     cdiaghg      :      7.48s CPU      7.54s WALL (    4644 calls)
     h_psi        :    402.59s CPU    405.90s WALL (    5049 calls)
     s_psi        :     93.21s CPU     93.46s WALL (    5049 calls)
     g_psi        :      1.10s CPU      1.11s WALL (    3645 calls)

     Called by h_psi:
     h_psi:calbec :     98.60s CPU     98.89s WALL (    5049 calls)
     vloc_psi     :    209.54s CPU    212.37s WALL (    5049 calls)
     add_vuspsi   :     93.40s CPU     93.62s WALL (    5049 calls)

     General routines
     calbec       :    166.86s CPU    167.27s WALL (    7506 calls)
     fft          :      4.18s CPU      6.15s WALL (     874 calls)
     ffts         :      0.36s CPU      1.21s WALL (     103 calls)
     fftw         :    197.54s CPU    199.92s WALL (  226688 calls)
     interpolate  :      0.54s CPU      1.40s WALL (      52 calls)
     davcio       :      0.01s CPU      0.05s WALL (      27 calls)

     Parallel routines

     PWSCF        :  13m22.35s CPU  13m32.89s WALL


   This run was terminated on:  11:20:17   9Jul2024            

=------------------------------------------------------------------------------=
   JOB DONE.
=------------------------------------------------------------------------------=
