
     Program PWSCF v.7.3.1 starts on 12Jul2024 at 15: 0:18 

     This program is part of the open-source Quantum ESPRESSO suite
     for quantum simulation of materials; please cite
         "P. Giannozzi et al., J. Phys.:Condens. Matter 21 395502 (2009);
         "P. Giannozzi et al., J. Phys.:Condens. Matter 29 465901 (2017);
         "P. Giannozzi et al., J. Chem. Phys. 152 154105 (2020);
          URL http://www.quantum-espresso.org", 
     in publications or presentations arising from this work. More details at
     http://www.quantum-espresso.org/quote

     Parallel version (MPI), running on    16 processors

     MPI processes distributed on     1 nodes
     61347 MiB available memory on the printing compute node when the environment starts

     Waiting for input...
     Reading input from standard input

     Current dimensions of program PWSCF are:
     Max number of different atomic species (ntypx) = 10
     Max number of k-points (npk) =  40000
     Max angular momentum in pseudopotentials (lmaxx) =  4

     R & G space division:  proc/nbgrp/npool/nimage =      16
     Subspace diagonalization in iterative solution of the eigenvalue problem:
     a serial algorithm will be used


     Parallelization info
     --------------------
     sticks:   dense  smooth     PW     G-vecs:    dense   smooth      PW
     Min         658     329     91                34752    12282    1779
     Max         659     330     92                34754    12283    1781
     Sum       10531    5267   1457               556053   196525   28477

     Using Slab Decomposition


     Title: 
     volume variation                                                           


     bravais-lattice index     =            8
     lattice parameter (alat)  =      12.7028  a.u.
     unit-cell volume          =    1455.5097 (a.u.)^3
     number of atoms/cell      =           22
     number of atomic types    =            3
     number of electrons       =        48.00
     number of Kohn-Sham states=           24
     kinetic-energy cutoff     =     100.0000  Ry
     charge density cutoff     =     800.0000  Ry
     scf convergence threshold =      1.0E-10
     mixing beta               =       0.7000
     number of iterations used =            8  plain     mixing
     energy convergence thresh.=      1.0E-05
     force convergence thresh. =      1.0E-05
     press convergence thresh. =      5.0E-01
     Exchange-correlation= PBESOL
                           (   1   4  10   8   0   0   0)
     nstep                     =          300


     celldm(1)=  12.702777  celldm(2)=   1.025571  celldm(3)=   0.692394
     celldm(4)=   0.000000  celldm(5)=   0.000000  celldm(6)=   0.000000

     crystal axes: (cart. coord. in units of alat)
               a(1) = (   1.000000   0.000000   0.000000 )  
               a(2) = (   0.000000   1.025571   0.000000 )  
               a(3) = (   0.000000   0.000000   0.692394 )  

     reciprocal axes: (cart. coord. in units 2 pi/alat)
               b(1) = (  1.000000  0.000000  0.000000 )  
               b(2) = (  0.000000  0.975067  0.000000 )  
               b(3) = (  0.000000  0.000000  1.444264 )  


     PseudoPot. # 1 for B  read from file:
     /home/mehlhorn/pseudos/b_pbesol_v1.4.uspp.F.UPF
     MD5 check sum: 369b69bef2c3aeed4453bd8b804fd6a8
     Pseudo is Ultrasoft + core correction, Zval =  3.0
     Generated by new atomic code, or converted to UPF format
     Using radial grid of  781 points,  4 beta functions with: 
                l(1) =   0
                l(2) =   0
                l(3) =   1
                l(4) =   1
     Q(r) pseudized with  8 coefficients,  rinner =    1.100   1.100   1.100


     PseudoPot. # 2 for Ba read from file:
     /home/mehlhorn/pseudos/Ba.nc.z_10.oncvpsp4.dojo.v4-sp.upf
     MD5 check sum: c10ed334bb677c0554edec7181ce9143
     Pseudo is Norm-conserving + core correction, Zval = 10.0
     Generated using ONCVPSP code by D. R. Hamann
     Using radial grid of 1938 points,  8 beta functions with: 
                l(1) =   0
                l(2) =   0
                l(3) =   1
                l(4) =   1
                l(5) =   2
                l(6) =   2
                l(7) =   3
                l(8) =   3

     PseudoPot. # 3 for H  read from file:
     /home/mehlhorn/pseudos/H_ONCV_PBEsol-1.0.upf
     MD5 check sum: 398ef8f67c0a7342c05c87c5e19ea467
     Pseudo is Norm-conserving, Zval =  1.0
     Generated using ONCVPSP code by D. R. Hamann
     Using radial grid of 1180 points,  2 beta functions with: 
                l(1) =   0
                l(2) =   0

     atomic species   valence    mass     pseudopotential
     B                 3.00    10.81100     B ( 1.00)
     Ba               10.00   137.32700     Ba( 1.00)
     H                 1.00     1.00794     H ( 1.00)

      4 Sym. Ops. (no inversion) found ( 2 have fractional translation)



   Cartesian axes

     site n.     atom                  positions (alat units)
         1        Ba     tau(   1) = (   0.5000000   0.5127855   0.3462657  )
         2        Ba     tau(   2) = (   0.0000000   0.0000000   0.6923255  )
         3        B      tau(   3) = (   0.6102570   0.2453190   0.0000455  )
         4        B      tau(   4) = (   0.3897430   0.7802519   0.0000455  )
         5        B      tau(   5) = (   0.1102570   0.2674665   0.3461516  )
         6        B      tau(   6) = (   0.8897430   0.7581045   0.3461516  )
         7        H      tau(   7) = (   0.4340973   0.2996264   0.0001599  )
         8        H      tau(   8) = (   0.5659027   0.7259445   0.0001599  )
         9        H      tau(   9) = (   0.9340973   0.2131590   0.3460372  )
        10        H      tau(  10) = (   0.0659027   0.8124119   0.3460372  )
        11        H      tau(  11) = (   0.7220603   0.3933629  -0.0000058  )
        12        H      tau(  12) = (   0.2779397   0.6322081  -0.0000058  )
        13        H      tau(  13) = (   0.2220603   0.1194226   0.3462029  )
        14        H      tau(  14) = (   0.7779397   0.9061483   0.3462029  )
        15        H      tau(  15) = (   0.6392499   0.1457279   0.5404125  )
        16        H      tau(  16) = (   0.3607501   0.8798430   0.5404125  )
        17        H      tau(  17) = (   0.1392499   0.3670576   0.4981787  )
        18        H      tau(  18) = (   0.8607501   0.6585133   0.4981787  )
        19        H      tau(  19) = (   0.3605328   0.8798946   0.1519977  )
        20        H      tau(  20) = (   0.6394672   0.1456763   0.1519977  )
        21        H      tau(  21) = (   0.8605328   0.6584617   0.1941994  )
        22        H      tau(  22) = (   0.1394672   0.3671092   0.1941994  )

     number of k points=    27
                       cart. coord. in units 2pi/alat
        k(    1) = (   0.0000000   0.0000000   0.0000000), wk =   0.0312500
        k(    2) = (   0.0000000   0.0000000   0.3610660), wk =   0.0625000
        k(    3) = (   0.0000000   0.0000000  -0.7221320), wk =   0.0312500
        k(    4) = (   0.0000000   0.2437667   0.0000000), wk =   0.0625000
        k(    5) = (   0.0000000   0.2437667   0.3610660), wk =   0.1250000
        k(    6) = (   0.0000000   0.2437667  -0.7221320), wk =   0.0625000
        k(    7) = (   0.0000000  -0.4875333   0.0000000), wk =   0.0312500
        k(    8) = (   0.0000000  -0.4875333   0.3610660), wk =   0.0625000
        k(    9) = (   0.0000000  -0.4875333  -0.7221320), wk =   0.0312500
        k(   10) = (   0.2500000   0.0000000   0.0000000), wk =   0.0625000
        k(   11) = (   0.2500000   0.0000000   0.3610660), wk =   0.1250000
        k(   12) = (   0.2500000   0.0000000  -0.7221320), wk =   0.0625000
        k(   13) = (   0.2500000   0.2437667   0.0000000), wk =   0.1250000
        k(   14) = (   0.2500000   0.2437667   0.3610660), wk =   0.2500000
        k(   15) = (   0.2500000   0.2437667  -0.7221320), wk =   0.1250000
        k(   16) = (   0.2500000  -0.4875333   0.0000000), wk =   0.0625000
        k(   17) = (   0.2500000  -0.4875333   0.3610660), wk =   0.1250000
        k(   18) = (   0.2500000  -0.4875333  -0.7221320), wk =   0.0625000
        k(   19) = (  -0.5000000   0.0000000   0.0000000), wk =   0.0312500
        k(   20) = (  -0.5000000   0.0000000   0.3610660), wk =   0.0625000
        k(   21) = (  -0.5000000   0.0000000  -0.7221320), wk =   0.0312500
        k(   22) = (  -0.5000000   0.2437667   0.0000000), wk =   0.0625000
        k(   23) = (  -0.5000000   0.2437667   0.3610660), wk =   0.1250000
        k(   24) = (  -0.5000000   0.2437667  -0.7221320), wk =   0.0625000
        k(   25) = (  -0.5000000  -0.4875333   0.0000000), wk =   0.0312500
        k(   26) = (  -0.5000000  -0.4875333   0.3610660), wk =   0.0625000
        k(   27) = (  -0.5000000  -0.4875333  -0.7221320), wk =   0.0312500

     Dense  grid:   556053 G-vectors     FFT dimensions: ( 120, 120,  80)

     Smooth grid:   196525 G-vectors     FFT dimensions: (  90,  90,  60)

     Estimated max dynamical RAM per process >     120.49 MB

     Estimated total dynamical RAM >       1.88 GB

     Initial potential from superposition of free atoms

     starting charge      47.9682, renormalised to      48.0000
     Starting wfcs are   42 randomized atomic wfcs

     total cpu time spent up to now is        4.8 secs

     Self-consistent Calculation

     iteration #  1     ecut=   100.00 Ry     beta= 0.70
     Davidson diagonalization with overlap
     ethr =  1.00E-02,  avg # of iterations =  2.0

     total cpu time spent up to now is       11.8 secs

     total energy              =    -155.93840710 Ry
     estimated scf accuracy    <       2.04231266 Ry

     iteration #  2     ecut=   100.00 Ry     beta= 0.70
     Davidson diagonalization with overlap
     ethr =  4.25E-03,  avg # of iterations =  2.0

     total cpu time spent up to now is       18.5 secs

     total energy              =    -156.40858994 Ry
     estimated scf accuracy    <       0.36818572 Ry

     iteration #  3     ecut=   100.00 Ry     beta= 0.70
     Davidson diagonalization with overlap
     ethr =  7.67E-04,  avg # of iterations =  2.0

     total cpu time spent up to now is       25.2 secs

     total energy              =    -156.47004350 Ry
     estimated scf accuracy    <       0.00481809 Ry

     iteration #  4     ecut=   100.00 Ry     beta= 0.70
     Davidson diagonalization with overlap
     ethr =  1.00E-05,  avg # of iterations =  5.1

     total cpu time spent up to now is       35.3 secs

     total energy              =    -156.47304689 Ry
     estimated scf accuracy    <       0.00173167 Ry

     iteration #  5     ecut=   100.00 Ry     beta= 0.70
     Davidson diagonalization with overlap
     ethr =  3.61E-06,  avg # of iterations =  3.1

     total cpu time spent up to now is       42.2 secs

     total energy              =    -156.47364230 Ry
     estimated scf accuracy    <       0.00017410 Ry

     iteration #  6     ecut=   100.00 Ry     beta= 0.70
     Davidson diagonalization with overlap
     ethr =  3.63E-07,  avg # of iterations =  4.0

     total cpu time spent up to now is       50.0 secs

     total energy              =    -156.47370490 Ry
     estimated scf accuracy    <       0.00000126 Ry

     iteration #  7     ecut=   100.00 Ry     beta= 0.70
     Davidson diagonalization with overlap
     ethr =  2.63E-09,  avg # of iterations =  9.1

     total cpu time spent up to now is       66.7 secs

     total energy              =    -156.47371550 Ry
     estimated scf accuracy    <       0.00000115 Ry

     iteration #  8     ecut=   100.00 Ry     beta= 0.70
     Davidson diagonalization with overlap
     ethr =  2.40E-09,  avg # of iterations =  2.0

     total cpu time spent up to now is       73.4 secs

     total energy              =    -156.47371573 Ry
     estimated scf accuracy    <       0.00000002 Ry

     iteration #  9     ecut=   100.00 Ry     beta= 0.70
     Davidson diagonalization with overlap
     ethr =  3.37E-11,  avg # of iterations =  6.0

     total cpu time spent up to now is       83.7 secs

     total energy              =    -156.47371575 Ry
     estimated scf accuracy    <          3.1E-09 Ry

     iteration # 10     ecut=   100.00 Ry     beta= 0.70
     Davidson diagonalization with overlap
     ethr =  6.42E-12,  avg # of iterations =  2.9

     total cpu time spent up to now is       91.4 secs

     total energy              =    -156.47371575 Ry
     estimated scf accuracy    <          4.2E-10 Ry

     iteration # 11     ecut=   100.00 Ry     beta= 0.70
     Davidson diagonalization with overlap
     ethr =  8.77E-13,  avg # of iterations =  4.0

     total cpu time spent up to now is       98.9 secs

     End of self-consistent calculation

          k = 0.0000 0.0000 0.0000 ( 24527 PWs)   bands (ev):

   -23.9745 -23.9659  -9.5023  -9.4178  -9.2294  -9.1921  -9.1615  -9.1001
    -6.0404  -5.0886  -4.4319  -4.2783  -1.7529  -0.8382  -0.7885  -0.4234
    -0.0483  -0.0361   0.0047   0.1358   0.2972   0.7062   0.7258   0.7675

          k = 0.0000 0.0000 0.3611 ( 24574 PWs)   bands (ev):

   -23.9670 -23.9610  -9.4097  -9.4076  -9.3832  -9.3528  -9.2121  -9.1916
    -5.5464  -4.8358  -4.5980  -4.4994  -1.3772  -1.1205  -0.6618  -0.6048
    -0.4631  -0.3474   0.0190   0.3059   0.5072   0.5405   0.6142   0.7646

          k = 0.0000 0.0000-0.7221 ( 24616 PWs)   bands (ev):

   -23.9577 -23.9577  -9.6208  -9.6206  -9.2695  -9.2695  -9.2219  -9.2219
    -4.8375  -4.8370  -4.7460  -4.7455  -1.1369  -1.1364  -1.1225  -1.1209
    -0.0589  -0.0582   0.0029   0.0048   0.5791   0.5792   0.5940   0.5946

          k = 0.0000 0.2438 0.0000 ( 24565 PWs)   bands (ev):

   -23.9732 -23.9672  -9.4737  -9.3881  -9.2809  -9.2264  -9.1523  -9.1089
    -5.8427  -4.9998  -4.7168  -4.4064  -1.3918  -0.9712  -0.9180  -0.1458
    -0.1364  -0.1088   0.1801   0.2989   0.3834   0.3882   0.6194   0.6972

          k = 0.0000 0.2438 0.3611 ( 24562 PWs)   bands (ev):

   -23.9661 -23.9618  -9.4529  -9.4137  -9.3373  -9.3256  -9.2208  -9.2129
    -5.4398  -4.9094  -4.6421  -4.5405  -1.1862  -1.1450  -0.9418  -0.3759
    -0.3307  -0.1355  -0.1246   0.3575   0.4374   0.4816   0.5868   0.6446

          k = 0.0000 0.2438-0.7221 ( 24596 PWs)   bands (ev):

   -23.9577 -23.9577  -9.6342  -9.6341  -9.2516  -9.2516  -9.2211  -9.2211
    -5.1080  -5.1079  -4.4652  -4.4651  -1.2546  -1.2539  -0.9489  -0.9481
     0.0118   0.0120   0.0470   0.0485   0.4081   0.4081   0.5891   0.5894

          k = 0.0000-0.4875 0.0000 ( 24610 PWs)   bands (ev):

   -23.9702 -23.9702  -9.3933  -9.3933  -9.3045  -9.3045  -9.1304  -9.1304
    -5.3460  -5.3460  -4.6904  -4.6904  -1.0921  -1.0921  -0.4517  -0.4517
    -0.2136  -0.2136   0.2969   0.2969   0.4236   0.4236   0.5520   0.5520

          k = 0.0000-0.4875 0.3611 ( 24592 PWs)   bands (ev):

   -23.9640 -23.9640  -9.4516  -9.4516  -9.2835  -9.2835  -9.2494  -9.2494
    -5.1735  -5.1735  -4.6173  -4.6173  -1.1276  -1.1276  -0.7120  -0.7120
    -0.0897  -0.0897   0.1936   0.1936   0.3513   0.3513   0.5635   0.5635

          k = 0.0000-0.4875-0.7221 ( 24560 PWs)   bands (ev):

   -23.9577 -23.9577  -9.6464  -9.6464  -9.2368  -9.2368  -9.2181  -9.2181
    -5.2348  -5.2348  -4.3282  -4.3282  -1.3441  -1.3441  -0.7078  -0.7078
    -0.0615  -0.0615   0.1236   0.1236   0.2156   0.2156   0.6262   0.6262

          k = 0.2500 0.0000 0.0000 ( 24502 PWs)   bands (ev):

   -23.9732 -23.9672  -9.4645  -9.3993  -9.2713  -9.2423  -9.1523  -9.1089
    -5.8511  -5.1250  -4.4697  -4.4321  -1.5617  -0.7016  -0.6971  -0.5526
    -0.0131   0.0243   0.0915   0.1588   0.2563   0.2822   0.6724   0.7121

          k = 0.2500 0.0000 0.3611 ( 24605 PWs)   bands (ev):

   -23.9661 -23.9618  -9.4437  -9.4253  -9.3655  -9.3020  -9.2366  -9.2009
    -5.3978  -4.8240  -4.6295  -4.6291  -1.3472  -1.0986  -0.9517  -0.4265
    -0.4037  -0.1374   0.0946   0.2306   0.3650   0.4972   0.6901   0.7153

          k = 0.2500 0.0000-0.7221 ( 24622 PWs)   bands (ev):

   -23.9577 -23.9577  -9.6387  -9.6386  -9.2564  -9.2563  -9.2186  -9.2185
    -4.9072  -4.9068  -4.6460  -4.6457  -1.6047  -1.6042  -0.6836  -0.6832
    -0.0690  -0.0686   0.2543   0.2558   0.3836   0.3837   0.6290   0.6293

          k = 0.2500 0.2438 0.0000 ( 24553 PWs)   bands (ev):

   -23.9723 -23.9680  -9.4915  -9.3754  -9.3220  -9.1985  -9.1457  -9.1150
    -5.7084  -5.0844  -4.7082  -4.4694  -1.2725  -0.9398  -0.7175  -0.2566
    -0.1850  -0.1385   0.1664   0.3088   0.3291   0.4040   0.4804   0.6264

          k = 0.2500 0.2438 0.3611 ( 24573 PWs)   bands (ev):

   -23.9655 -23.9624  -9.4457  -9.4071  -9.4020  -9.2828  -9.2467  -9.1946
    -5.3083  -4.8585  -4.7271  -4.6192  -1.3084  -1.0630  -0.9715  -0.4151
    -0.2503  -0.0758   0.0291   0.2479   0.3473   0.4609   0.6098   0.6941

          k = 0.2500 0.2438-0.7221 ( 24598 PWs)   bands (ev):

   -23.9577 -23.9577  -9.6456  -9.6226  -9.2769  -9.2384  -9.2259  -9.2190
    -5.1158  -4.9402  -4.6057  -4.4255  -1.5805  -1.5017  -0.7510  -0.6515
    -0.1164  -0.1144   0.2253   0.2866   0.4032   0.4426   0.5758   0.6104

          k = 0.2500-0.4875 0.0000 ( 24554 PWs)   bands (ev):

   -23.9702 -23.9702  -9.4666  -9.4666  -9.2320  -9.2320  -9.1300  -9.1300
    -5.3440  -5.3440  -4.6831  -4.6831  -0.9944  -0.9944  -0.4625  -0.4625
    -0.2510  -0.2510   0.2278   0.2278   0.4606   0.4606   0.4862   0.4862

          k = 0.2500-0.4875 0.3611 ( 24582 PWs)   bands (ev):

   -23.9639 -23.9639  -9.4407  -9.4407  -9.3430  -9.3430  -9.2081  -9.2081
    -5.0847  -5.0847  -4.6877  -4.6877  -1.2155  -1.2155  -0.6425  -0.6425
    -0.1083  -0.1083   0.2159   0.2159   0.3588   0.3588   0.5823   0.5823

          k = 0.2500-0.4875-0.7221 ( 24592 PWs)   bands (ev):

   -23.9577 -23.9577  -9.6305  -9.6305  -9.2596  -9.2596  -9.2247  -9.2247
    -5.1280  -5.1280  -4.4061  -4.4061  -1.4695  -1.4695  -0.7655  -0.7655
    -0.0027  -0.0027   0.1236   0.1236   0.4317   0.4317   0.5981   0.5981

          k =-0.5000 0.0000 0.0000 ( 24540 PWs)   bands (ev):

   -23.9702 -23.9702  -9.3722  -9.3722  -9.3340  -9.3340  -9.1304  -9.1304
    -5.4231  -5.4231  -4.5313  -4.5313  -1.1388  -1.1388  -0.3406  -0.3406
     0.0244   0.0244   0.0464   0.0464   0.1401   0.1401   0.5633   0.5633

          k =-0.5000 0.0000 0.3611 ( 24602 PWs)   bands (ev):

   -23.9639 -23.9639  -9.4551  -9.4551  -9.3049  -9.3049  -9.2355  -9.2355
    -5.0483  -5.0483  -4.6924  -4.6924  -1.2686  -1.2686  -0.7018  -0.7018
    -0.1078  -0.1078   0.0837   0.0837   0.4602   0.4602   0.6759   0.6759

          k =-0.5000 0.0000-0.7221 ( 24596 PWs)   bands (ev):

   -23.9577 -23.9577  -9.6553  -9.6553  -9.2459  -9.2459  -9.2138  -9.2138
    -4.9460  -4.9460  -4.5743  -4.5743  -1.8166  -1.8166  -0.3937  -0.3937
    -0.0756  -0.0756   0.0957   0.0957   0.5685   0.5685   0.5908   0.5908

          k =-0.5000 0.2438 0.0000 ( 24526 PWs)   bands (ev):

   -23.9701 -23.9701  -9.4652  -9.4652  -9.2376  -9.2376  -9.1300  -9.1300
    -5.3866  -5.3866  -4.5997  -4.5997  -1.0300  -1.0300  -0.3468  -0.3468
    -0.1842  -0.1842   0.0069   0.0069   0.3709   0.3709   0.5416   0.5416

          k =-0.5000 0.2438 0.3611 ( 24598 PWs)   bands (ev):

   -23.9639 -23.9639  -9.4430  -9.4430  -9.3473  -9.3473  -9.2069  -9.2069
    -5.0037  -5.0037  -4.7433  -4.7433  -1.2730  -1.2730  -0.6752  -0.6752
    -0.0727  -0.0727   0.1313   0.1313   0.4529   0.4529   0.6067   0.6067

          k =-0.5000 0.2438-0.7221 ( 24624 PWs)   bands (ev):

   -23.9577 -23.9577  -9.6353  -9.6353  -9.2623  -9.2623  -9.2239  -9.2239
    -4.9681  -4.9681  -4.5444  -4.5444  -1.7158  -1.7158  -0.6006  -0.6006
    -0.0310  -0.0310   0.1661   0.1661   0.5098   0.5098   0.6484   0.6484

          k =-0.5000-0.4875 0.0000 ( 24516 PWs)   bands (ev):

   -23.9701 -23.9701  -9.5096  -9.5096  -9.1899  -9.1899  -9.1297  -9.1297
    -5.3439  -5.3439  -4.6731  -4.6731  -0.8732  -0.8732  -0.5004  -0.5004
    -0.2848  -0.2848   0.1988   0.1988   0.3823   0.3823   0.4941   0.4941

          k =-0.5000-0.4875 0.3611 ( 24576 PWs)   bands (ev):

   -23.9639 -23.9639  -9.4196  -9.4196  -9.3894  -9.3894  -9.1900  -9.1900
    -4.9283  -4.9283  -4.8247  -4.8247  -1.2596  -1.2596  -0.7166  -0.7166
     0.0789   0.0789   0.2204   0.2204   0.3643   0.3643   0.5096   0.5096

          k =-0.5000-0.4875-0.7221 ( 24560 PWs)   bands (ev):

   -23.9576 -23.9576  -9.6127  -9.6127  -9.2849  -9.2849  -9.2305  -9.2305
    -4.9882  -4.9882  -4.5165  -4.5165  -1.5603  -1.5603  -0.8911  -0.8911
     0.1916   0.1916   0.2395   0.2395   0.3845   0.3845   0.6147   0.6147

     highest occupied level (ev):     0.7675

!    total energy              =    -156.47371575 Ry
     estimated scf accuracy    <          4.4E-11 Ry

     The total energy is the sum of the following terms:
     one-electron contribution =     -22.54448375 Ry
     hartree contribution      =      25.51920124 Ry
     xc contribution           =     -49.04407944 Ry
     ewald contribution        =    -110.40435380 Ry

     convergence has been achieved in  11 iterations

     Forces acting on atoms (cartesian axes, Ry/au):

     atom    1 type  2   force =     0.00000000    0.00000000    0.00001217
     atom    2 type  2   force =     0.00000000    0.00000000   -0.00001217
     atom    3 type  1   force =     0.00012350    0.00061236   -0.00001338
     atom    4 type  1   force =    -0.00012350   -0.00061236   -0.00001338
     atom    5 type  1   force =     0.00012350   -0.00061236    0.00001338
     atom    6 type  1   force =    -0.00012350    0.00061236    0.00001338
     atom    7 type  3   force =     0.00525792   -0.00133411   -0.00001802
     atom    8 type  3   force =    -0.00525792    0.00133411   -0.00001802
     atom    9 type  3   force =     0.00525792    0.00133411    0.00001802
     atom   10 type  3   force =    -0.00525792   -0.00133411    0.00001802
     atom   11 type  3   force =    -0.00347850   -0.00419798    0.00000647
     atom   12 type  3   force =     0.00347850    0.00419798    0.00000647
     atom   13 type  3   force =    -0.00347850    0.00419798   -0.00000647
     atom   14 type  3   force =     0.00347850   -0.00419798   -0.00000647
     atom   15 type  3   force =    -0.00062744    0.00308483    0.00469031
     atom   16 type  3   force =     0.00062744   -0.00308483    0.00469031
     atom   17 type  3   force =    -0.00062744   -0.00308483   -0.00469031
     atom   18 type  3   force =     0.00062744    0.00308483   -0.00469031
     atom   19 type  3   force =     0.00067805   -0.00310450   -0.00469847
     atom   20 type  3   force =    -0.00067805    0.00310450   -0.00469847
     atom   21 type  3   force =     0.00067805    0.00310450    0.00469847
     atom   22 type  3   force =    -0.00067805   -0.00310450    0.00469847

     Total force =     0.022237     Total SCF correction =     0.000004


     Computing stress (Cartesian axis) and pressure

          total   stress  (Ry/bohr**3)                   (kbar)     P=      -11.69
  -0.00007393   0.00000000   0.00000000          -10.88        0.00        0.00
   0.00000000  -0.00007546   0.00000000            0.00      -11.10        0.00
   0.00000000   0.00000000  -0.00008896            0.00        0.00      -13.09

     Volume is kept fixed: isostatic pressure set to zero

     BFGS Geometry Optimization
     Energy error            =      0.0E+00 Ry
     Gradient error          =      5.3E-03 Ry/Bohr
     Cell gradient error     =      1.4E+00 kbar

     number of scf cycles    =   1
     number of bfgs steps    =   0

     enthalpy           new  =    -156.4737157530 Ry

     new trust radius        =       0.0056721497 bohr
ibrav =      8
 celldm(1) =     12.70452965
 celldm(2) =      1.02553169
 celldm(3) =      0.69213409
Input lattice vectors:
     1.00013799     0.00000000     0.00000000
     0.00000000     1.02567320     0.00000000
     0.00000000     0.00000000     0.69222960
New lattice vectors in INITIAL alat:
     1.00013799     0.00000000     0.00000000
     0.00000000     1.02567320     0.00000000
     0.00000000     0.00000000     0.69222960
New lattice vectors in NEW alat (for information only):
     1.00000000     0.00000000     0.00000000
     0.00000000     1.02553169     0.00000000
     0.00000000     0.00000000     0.69213409
Discrepancy in bohr =     0.000000    0.000000    0.000000
     new conv_thr            =            1.0E-10 Ry

     new unit-cell volume =   1455.50969 a.u.^3 (   215.68428 Ang^3 )
     density =      2.57164 g/cm^3

CELL_PARAMETERS (alat= 12.70277685)
   1.000137986   0.000000000   0.000000000
   0.000000000   1.025673199   0.000000000
   0.000000000   0.000000000   0.692229599

ATOMIC_POSITIONS (crystal)
Ba               0.5000000000        0.5000000000        0.5001005488
Ba               0.0000000000        0.0000000000        0.9998994512
B                0.6102667383        0.2392493848        0.0000641352
B                0.3897332617        0.7607506152        0.0000641352
B                0.1102667383        0.2607506152        0.4999358648
B                0.8897332617        0.7392493848        0.4999358648
H                0.4345111715        0.2920533227        0.0002288847
H                0.5654888285        0.7079466773        0.0002288847
H                0.9345111715        0.2079466773        0.4997711153
H                0.0654888285        0.7920533227        0.4997711153
H                0.7217864304        0.3832327719       -0.0000076357
H                0.2782135696        0.6167672281       -0.0000076357
H                0.2217864304        0.1167672281        0.5000076357
H                0.7782135696        0.8832327719        0.5000076357
H                0.6392005303        0.1423311868        0.7810316871
H                0.3607994697        0.8576688132        0.7810316871
H                0.1392005303        0.3576688132        0.7189683129
H                0.8607994697        0.6423311868        0.7189683129
H                0.3605862087        0.8577176128        0.2189906479
H                0.6394137913        0.1422823872        0.2189906479
H                0.8605862087        0.6422823872        0.2810093521
H                0.1394137913        0.3577176128        0.2810093521



     Writing config-only to output data dir ./pwscf.save/ :
     XML data file
     NEW-OLD atomic charge density approx. for the potential

     total cpu time spent up to now is      107.0 secs

     Self-consistent Calculation

     iteration #  1     ecut=   100.00 Ry     beta= 0.70
     Davidson diagonalization with overlap
     ethr =  1.00E-06,  avg # of iterations =  3.0

     total cpu time spent up to now is      115.0 secs

     total energy              =    -156.47408981 Ry
     estimated scf accuracy    <       0.00010667 Ry

     iteration #  2     ecut=   100.00 Ry     beta= 0.70
     Davidson diagonalization with overlap
     ethr =  2.22E-07,  avg # of iterations =  2.0

     total cpu time spent up to now is      121.7 secs

     total energy              =    -156.47411737 Ry
     estimated scf accuracy    <       0.00001641 Ry

     iteration #  3     ecut=   100.00 Ry     beta= 0.70
     Davidson diagonalization with overlap
     ethr =  3.42E-08,  avg # of iterations =  2.0

     total cpu time spent up to now is      128.4 secs

     total energy              =    -156.47411975 Ry
     estimated scf accuracy    <       0.00000017 Ry

     iteration #  4     ecut=   100.00 Ry     beta= 0.70
     Davidson diagonalization with overlap
     ethr =  3.47E-10,  avg # of iterations =  3.5

     total cpu time spent up to now is      136.9 secs

     total energy              =    -156.47411983 Ry
     estimated scf accuracy    <       0.00000013 Ry

     iteration #  5     ecut=   100.00 Ry     beta= 0.70
     Davidson diagonalization with overlap
     ethr =  2.80E-10,  avg # of iterations =  2.0

     total cpu time spent up to now is      143.6 secs

     total energy              =    -156.47411985 Ry
     estimated scf accuracy    <          1.8E-09 Ry

     iteration #  6     ecut=   100.00 Ry     beta= 0.70
     Davidson diagonalization with overlap
     ethr =  3.65E-12,  avg # of iterations =  6.0

     total cpu time spent up to now is      154.5 secs

     total energy              =    -156.47411985 Ry
     estimated scf accuracy    <          8.8E-10 Ry

     iteration #  7     ecut=   100.00 Ry     beta= 0.70
     Davidson diagonalization with overlap
     ethr =  1.83E-12,  avg # of iterations =  2.1

     total cpu time spent up to now is      161.3 secs

     End of self-consistent calculation

          k = 0.0000 0.0000 0.0000 ( 24527 PWs)   bands (ev):

   -23.9796 -23.9711  -9.5076  -9.4227  -9.2343  -9.1969  -9.1661  -9.1048
    -6.0504  -5.1049  -4.4475  -4.2949  -1.7526  -0.8445  -0.7916  -0.4332
    -0.0565  -0.0397  -0.0011   0.1277   0.2901   0.6948   0.7143   0.7552

          k = 0.0000 0.0000 0.3612 ( 24574 PWs)   bands (ev):

   -23.9721 -23.9661  -9.4148  -9.4128  -9.3884  -9.3576  -9.2169  -9.1964
    -5.5570  -4.8515  -4.6142  -4.5164  -1.3762  -1.1216  -0.6630  -0.6115
    -0.4691  -0.3538   0.0108   0.2959   0.4966   0.5293   0.6044   0.7531

          k = 0.0000 0.0000-0.7223 ( 24616 PWs)   bands (ev):

   -23.9629 -23.9629  -9.6265  -9.6263  -9.2742  -9.2742  -9.2267  -9.2267
    -4.8508  -4.8503  -4.7631  -4.7626  -1.1371  -1.1366  -1.1223  -1.1207
    -0.0676  -0.0670  -0.0053  -0.0035   0.5683   0.5684   0.5831   0.5835

          k = 0.0000 0.2437 0.0000 ( 24565 PWs)   bands (ev):

   -23.9784 -23.9723  -9.4790  -9.3931  -9.2858  -9.2311  -9.1569  -9.1136
    -5.8532  -5.0162  -4.7305  -4.4229  -1.3935  -0.9741  -0.9228  -0.1532
    -0.1427  -0.1191   0.1736   0.2912   0.3733   0.3803   0.6081   0.6859

          k = 0.0000 0.2437 0.3612 ( 24562 PWs)   bands (ev):

   -23.9712 -23.9670  -9.4580  -9.4189  -9.3424  -9.3304  -9.2256  -9.2176
    -5.4510  -4.9247  -4.6577  -4.5572  -1.1863  -1.1459  -0.9441  -0.3811
    -0.3371  -0.1446  -0.1315   0.3476   0.4272   0.4709   0.5764   0.6338

          k = 0.0000 0.2437-0.7223 ( 24596 PWs)   bands (ev):

   -23.9628 -23.9628  -9.6398  -9.6397  -9.2563  -9.2563  -9.2259  -9.2259
    -5.1230  -5.1230  -4.4804  -4.4804  -1.2546  -1.2539  -0.9494  -0.9487
     0.0030   0.0032   0.0383   0.0399   0.3982   0.3982   0.5779   0.5782

          k = 0.0000-0.4875 0.0000 ( 24610 PWs)   bands (ev):

   -23.9753 -23.9753  -9.3986  -9.3986  -9.3093  -9.3093  -9.1350  -9.1350
    -5.3578  -5.3578  -4.7066  -4.7066  -1.0946  -1.0946  -0.4582  -0.4582
    -0.2201  -0.2201   0.2858   0.2858   0.4155   0.4155   0.5423   0.5423

          k = 0.0000-0.4875 0.3612 ( 24592 PWs)   bands (ev):

   -23.9691 -23.9691  -9.4567  -9.4567  -9.2887  -9.2887  -9.2540  -9.2540
    -5.1866  -5.1866  -4.6332  -4.6332  -1.1284  -1.1284  -0.7158  -0.7158
    -0.0977  -0.0977   0.1854   0.1854   0.3405   0.3405   0.5531   0.5531

          k = 0.0000-0.4875-0.7223 ( 24560 PWs)   bands (ev):

   -23.9628 -23.9628  -9.6520  -9.6520  -9.2414  -9.2414  -9.2230  -9.2230
    -5.2500  -5.2500  -4.3432  -4.3432  -1.3441  -1.3441  -0.7085  -0.7085
    -0.0708  -0.0708   0.1157   0.1157   0.2055   0.2055   0.6148   0.6148

          k = 0.2500 0.0000 0.0000 ( 24502 PWs)   bands (ev):

   -23.9784 -23.9723  -9.4698  -9.4043  -9.2763  -9.2470  -9.1569  -9.1136
    -5.8618  -5.1403  -4.4855  -4.4481  -1.5620  -0.7064  -0.7010  -0.5600
    -0.0194   0.0165   0.0845   0.1505   0.2484   0.2727   0.6610   0.6998

          k = 0.2500 0.0000 0.3612 ( 24605 PWs)   bands (ev):

   -23.9712 -23.9670  -9.4489  -9.4305  -9.3706  -9.3069  -9.2414  -9.2057
    -5.4089  -4.8391  -4.6459  -4.6454  -1.3459  -1.1011  -0.9521  -0.4326
    -0.4110  -0.1445   0.0853   0.2213   0.3552   0.4873   0.6786   0.7046

          k = 0.2500 0.0000-0.7223 ( 24622 PWs)   bands (ev):

   -23.9628 -23.9628  -9.6443  -9.6442  -9.2610  -9.2610  -9.2234  -9.2233
    -4.9231  -4.9227  -4.6607  -4.6604  -1.6033  -1.6028  -0.6856  -0.6852
    -0.0777  -0.0773   0.2454   0.2469   0.3737   0.3738   0.6178   0.6182

          k = 0.2500 0.2437 0.0000 ( 24553 PWs)   bands (ev):

   -23.9775 -23.9732  -9.4966  -9.3805  -9.3268  -9.2033  -9.1503  -9.1196
    -5.7196  -5.0995  -4.7229  -4.4851  -1.2748  -0.9435  -0.7228  -0.2632
    -0.1914  -0.1451   0.1569   0.3009   0.3193   0.3957   0.4695   0.6158

          k = 0.2500 0.2437 0.3612 ( 24573 PWs)   bands (ev):

   -23.9706 -23.9676  -9.4509  -9.4122  -9.4069  -9.2880  -9.2514  -9.1994
    -5.3201  -4.8739  -4.7421  -4.6355  -1.3079  -1.0636  -0.9745  -0.4214
    -0.2572  -0.0834   0.0203   0.2391   0.3373   0.4505   0.5991   0.6835

          k = 0.2500 0.2437-0.7223 ( 24598 PWs)   bands (ev):

   -23.9628 -23.9628  -9.6512  -9.6282  -9.2815  -9.2430  -9.2306  -9.2239
    -5.1314  -4.9557  -4.6208  -4.4404  -1.5792  -1.5003  -0.7536  -0.6534
    -0.1248  -0.1230   0.2169   0.2775   0.3929   0.4321   0.5653   0.5988

          k = 0.2500-0.4875 0.0000 ( 24554 PWs)   bands (ev):

   -23.9753 -23.9753  -9.4717  -9.4717  -9.2369  -9.2369  -9.1347  -9.1347
    -5.3568  -5.3568  -4.6982  -4.6982  -0.9983  -0.9983  -0.4689  -0.4689
    -0.2572  -0.2572   0.2188   0.2188   0.4522   0.4522   0.4756   0.4756

          k = 0.2500-0.4875 0.3612 ( 24582 PWs)   bands (ev):

   -23.9691 -23.9691  -9.4458  -9.4458  -9.3480  -9.3480  -9.2129  -9.2129
    -5.0981  -5.0981  -4.7032  -4.7032  -1.2158  -1.2158  -0.6475  -0.6475
    -0.1157  -0.1157   0.2069   0.2069   0.3488   0.3488   0.5718   0.5718

          k = 0.2500-0.4875-0.7223 ( 24592 PWs)   bands (ev):

   -23.9628 -23.9628  -9.6362  -9.6362  -9.2643  -9.2643  -9.2295  -9.2295
    -5.1434  -5.1434  -4.4212  -4.4212  -1.4682  -1.4682  -0.7680  -0.7680
    -0.0118  -0.0118   0.1155   0.1155   0.4213   0.4213   0.5870   0.5870

          k =-0.4999 0.0000 0.0000 ( 24540 PWs)   bands (ev):

   -23.9753 -23.9753  -9.3775  -9.3775  -9.3387  -9.3387  -9.1351  -9.1351
    -5.4355  -5.4355  -4.5475  -4.5475  -1.1404  -1.1404  -0.3468  -0.3468
     0.0186   0.0186   0.0366   0.0366   0.1315   0.1315   0.5518   0.5518

          k =-0.4999 0.0000 0.3612 ( 24602 PWs)   bands (ev):

   -23.9691 -23.9691  -9.4602  -9.4602  -9.3100  -9.3100  -9.2402  -9.2402
    -5.0611  -5.0611  -4.7089  -4.7089  -1.2680  -1.2680  -0.7062  -0.7062
    -0.1161  -0.1161   0.0749   0.0749   0.4505   0.4505   0.6647   0.6647

          k =-0.4999 0.0000-0.7223 ( 24596 PWs)   bands (ev):

   -23.9628 -23.9628  -9.6609  -9.6609  -9.2505  -9.2505  -9.2186  -9.2186
    -4.9627  -4.9627  -4.5884  -4.5884  -1.8146  -1.8146  -0.3964  -0.3964
    -0.0843  -0.0843   0.0866   0.0866   0.5588   0.5588   0.5793   0.5793

          k =-0.4999 0.2437 0.0000 ( 24526 PWs)   bands (ev):

   -23.9753 -23.9753  -9.4703  -9.4703  -9.2425  -9.2425  -9.1347  -9.1347
    -5.3996  -5.3996  -4.6148  -4.6148  -1.0334  -1.0334  -0.3529  -0.3529
    -0.1904  -0.1904  -0.0018  -0.0018   0.3625   0.3625   0.5304   0.5304

          k =-0.4999 0.2437 0.3612 ( 24598 PWs)   bands (ev):

   -23.9691 -23.9691  -9.4481  -9.4481  -9.3524  -9.3524  -9.2117  -9.2117
    -5.0169  -5.0169  -4.7592  -4.7592  -1.2728  -1.2728  -0.6801  -0.6801
    -0.0808  -0.0808   0.1224   0.1224   0.4429   0.4429   0.5962   0.5962

          k =-0.4999 0.2437-0.7223 ( 24624 PWs)   bands (ev):

   -23.9628 -23.9628  -9.6410  -9.6410  -9.2669  -9.2669  -9.2287  -9.2287
    -4.9843  -4.9843  -4.5591  -4.5591  -1.7138  -1.7138  -0.6036  -0.6036
    -0.0393  -0.0393   0.1567   0.1567   0.4996   0.4996   0.6374   0.6374

          k =-0.4999-0.4875 0.0000 ( 24516 PWs)   bands (ev):

   -23.9753 -23.9753  -9.5146  -9.5146  -9.1948  -9.1948  -9.1343  -9.1343
    -5.3576  -5.3576  -4.6870  -4.6870  -0.8797  -0.8797  -0.5047  -0.5047
    -0.2908  -0.2908   0.1897   0.1897   0.3726   0.3726   0.4854   0.4854

          k =-0.4999-0.4875 0.3612 ( 24576 PWs)   bands (ev):

   -23.9690 -23.9690  -9.4245  -9.4245  -9.3947  -9.3947  -9.1948  -9.1948
    -4.9424  -4.9424  -4.8396  -4.8396  -1.2596  -1.2596  -0.7219  -0.7219
     0.0711   0.0711   0.2101   0.2101   0.3546   0.3546   0.5004   0.5004

          k =-0.4999-0.4875-0.7223 ( 24560 PWs)   bands (ev):

   -23.9628 -23.9628  -9.6183  -9.6183  -9.2895  -9.2895  -9.2353  -9.2353
    -5.0040  -5.0040  -4.5315  -4.5315  -1.5582  -1.5582  -0.8938  -0.8938
     0.1822   0.1822   0.2292   0.2292   0.3752   0.3752   0.6044   0.6044

     highest occupied level (ev):     0.7552

!    total energy              =    -156.47411985 Ry
     estimated scf accuracy    <          3.2E-12 Ry

     The total energy is the sum of the following terms:
     one-electron contribution =     -22.71013362 Ry
     hartree contribution      =      25.60170640 Ry
     xc contribution           =     -49.06469681 Ry
     ewald contribution        =    -110.30099582 Ry

     convergence has been achieved in   7 iterations

     Forces acting on atoms (cartesian axes, Ry/au):

     atom    1 type  2   force =     0.00000000    0.00000000    0.00001013
     atom    2 type  2   force =     0.00000000    0.00000000   -0.00001013
     atom    3 type  1   force =     0.00016154    0.00067646   -0.00001107
     atom    4 type  1   force =    -0.00016154   -0.00067646   -0.00001107
     atom    5 type  1   force =     0.00016154   -0.00067646    0.00001107
     atom    6 type  1   force =    -0.00016154    0.00067646    0.00001107
     atom    7 type  3   force =     0.00332930   -0.00075969   -0.00001754
     atom    8 type  3   force =    -0.00332930    0.00075969   -0.00001754
     atom    9 type  3   force =     0.00332930    0.00075969    0.00001754
     atom   10 type  3   force =    -0.00332930   -0.00075969    0.00001754
     atom   11 type  3   force =    -0.00220467   -0.00249069    0.00000516
     atom   12 type  3   force =     0.00220467    0.00249069    0.00000516
     atom   13 type  3   force =    -0.00220467    0.00249069   -0.00000516
     atom   14 type  3   force =     0.00220467   -0.00249069   -0.00000516
     atom   15 type  3   force =    -0.00029330    0.00193279    0.00282897
     atom   16 type  3   force =     0.00029330   -0.00193279    0.00282897
     atom   17 type  3   force =    -0.00029330   -0.00193279   -0.00282897
     atom   18 type  3   force =     0.00029330    0.00193279   -0.00282897
     atom   19 type  3   force =     0.00033920   -0.00195004   -0.00283741
     atom   20 type  3   force =    -0.00033920    0.00195004   -0.00283741
     atom   21 type  3   force =     0.00033920    0.00195004    0.00283741
     atom   22 type  3   force =    -0.00033920   -0.00195004    0.00283741

     Total force =     0.013712     Total SCF correction =     0.000001


     Computing stress (Cartesian axis) and pressure

          total   stress  (Ry/bohr**3)                   (kbar)     P=       -9.15
  -0.00005806   0.00000000   0.00000000           -8.54        0.00        0.00
   0.00000000  -0.00005886   0.00000000            0.00       -8.66        0.00
   0.00000000   0.00000000  -0.00006966            0.00        0.00      -10.25

     Volume is kept fixed: isostatic pressure set to zero
     Energy error            =      4.0E-04 Ry
     Gradient error          =      3.3E-03 Ry/Bohr
     Cell gradient error     =      1.1E+00 kbar

     number of scf cycles    =   2
     number of bfgs steps    =   1

     enthalpy           old  =    -156.4737157530 Ry
     enthalpy           new  =    -156.4741198527 Ry

     CASE: enthalpy          _new < enthalpy          _old

     new trust radius        =       0.0085071081 bohr
ibrav =      8
 celldm(1) =     12.70775411
 celldm(2) =      1.02548126
 celldm(3) =      0.69164137
Input lattice vectors:
     1.00039182     0.00000000     0.00000000
     0.00000000     1.02588307     0.00000000
     0.00000000     0.00000000     0.69191237
New lattice vectors in INITIAL alat:
     1.00039182     0.00000000     0.00000000
     0.00000000     1.02588307     0.00000000
     0.00000000     0.00000000     0.69191237
New lattice vectors in NEW alat (for information only):
     1.00000000     0.00000000     0.00000000
     0.00000000     1.02548126     0.00000000
     0.00000000     0.00000000     0.69164137
Discrepancy in bohr =     0.000000    0.000000    0.000000
     new conv_thr            =            4.0E-11 Ry

     new unit-cell volume =   1455.50969 a.u.^3 (   215.68428 Ang^3 )
     density =      2.57164 g/cm^3

CELL_PARAMETERS (alat= 12.70277685)
   1.000391825   0.000000000   0.000000000
   0.000000000   1.025883072   0.000000000
   0.000000000   0.000000000   0.691912375

ATOMIC_POSITIONS (crystal)
Ba               0.5000000000        0.5000000000        0.5001033753
Ba               0.0000000000        0.0000000000        0.9998966247
B                0.6102979188        0.2393767611        0.0000610451
B                0.3897020812        0.7606232389        0.0000610451
B                0.1102979188        0.2606232389        0.4999389549
B                0.8897020812        0.7393767611        0.4999389549
H                0.4351557655        0.2919098144        0.0002239926
H                0.5648442345        0.7080901856        0.0002239926
H                0.9351557655        0.2080901856        0.4997760074
H                0.0648442345        0.7919098144        0.4997760074
H                0.7213595804        0.3827623960       -0.0000061950
H                0.2786404196        0.6172376040       -0.0000061950
H                0.2213595804        0.1172376040        0.5000061950
H                0.7786404196        0.8827623960        0.5000061950
H                0.6391436229        0.1426960781        0.7818226838
H                0.3608563771        0.8573039219        0.7818226838
H                0.1391436229        0.3573039219        0.7181773162
H                0.8608563771        0.6426960781        0.7181773162
H                0.3606519859        0.8573494709        0.2181972970
H                0.6393480141        0.1426505291        0.2181972970
H                0.8606519859        0.6426505291        0.2818027030
H                0.1393480141        0.3573494709        0.2818027030



     Writing config-only to output data dir ./pwscf.save/ :
     XML data file
     NEW-OLD atomic charge density approx. for the potential

     total cpu time spent up to now is      169.4 secs

     Self-consistent Calculation

     iteration #  1     ecut=   100.00 Ry     beta= 0.70
     Davidson diagonalization with overlap
     ethr =  1.00E-06,  avg # of iterations =  3.0

     total cpu time spent up to now is      177.9 secs

     total energy              =    -156.47429606 Ry
     estimated scf accuracy    <       0.00025391 Ry

     iteration #  2     ecut=   100.00 Ry     beta= 0.70
     Davidson diagonalization with overlap
     ethr =  5.29E-07,  avg # of iterations =  2.0

     total cpu time spent up to now is      184.6 secs

     total energy              =    -156.47436234 Ry
     estimated scf accuracy    <       0.00004222 Ry

     iteration #  3     ecut=   100.00 Ry     beta= 0.70
     Davidson diagonalization with overlap
     ethr =  8.80E-08,  avg # of iterations =  2.0

     total cpu time spent up to now is      191.3 secs

     total energy              =    -156.47436847 Ry
     estimated scf accuracy    <       0.00000041 Ry

     iteration #  4     ecut=   100.00 Ry     beta= 0.70
     Davidson diagonalization with overlap
     ethr =  8.46E-10,  avg # of iterations =  3.5

     total cpu time spent up to now is      199.8 secs

     total energy              =    -156.47436868 Ry
     estimated scf accuracy    <       0.00000031 Ry

     iteration #  5     ecut=   100.00 Ry     beta= 0.70
     Davidson diagonalization with overlap
     ethr =  6.38E-10,  avg # of iterations =  2.0

     total cpu time spent up to now is      206.5 secs

     total energy              =    -156.47436873 Ry
     estimated scf accuracy    <          4.5E-09 Ry

     iteration #  6     ecut=   100.00 Ry     beta= 0.70
     Davidson diagonalization with overlap
     ethr =  9.30E-12,  avg # of iterations =  6.0

     total cpu time spent up to now is      217.3 secs

     total energy              =    -156.47436874 Ry
     estimated scf accuracy    <          2.0E-09 Ry

     iteration #  7     ecut=   100.00 Ry     beta= 0.70
     Davidson diagonalization with overlap
     ethr =  4.20E-12,  avg # of iterations =  2.1

     total cpu time spent up to now is      224.1 secs

     End of self-consistent calculation

          k = 0.0000 0.0000 0.0000 ( 24527 PWs)   bands (ev):

   -23.9872 -23.9787  -9.5156  -9.4301  -9.2416  -9.2039  -9.1729  -9.1118
    -6.0658  -5.1298  -4.4711  -4.3203  -1.7530  -0.8549  -0.7967  -0.4487
    -0.0677  -0.0471  -0.0080   0.1169   0.2814   0.6773   0.6956   0.7351

          k = 0.0000 0.0000 0.3613 ( 24574 PWs)   bands (ev):

   -23.9797 -23.9736  -9.4223  -9.4208  -9.3966  -9.3647  -9.2241  -9.2034
    -5.5728  -4.8750  -4.6391  -4.5426  -1.3750  -1.1238  -0.6657  -0.6224
    -0.4775  -0.3623  -0.0015   0.2811   0.4794   0.5121   0.5897   0.7349

          k = 0.0000 0.0000-0.7226 ( 24616 PWs)   bands (ev):

   -23.9703 -23.9703  -9.6353  -9.6352  -9.2810  -9.2809  -9.2338  -9.2337
    -4.8705  -4.8700  -4.7896  -4.7891  -1.1367  -1.1362  -1.1226  -1.1211
    -0.0819  -0.0813  -0.0177  -0.0159   0.5516   0.5516   0.5664   0.5667

          k = 0.0000 0.2437 0.0000 ( 24565 PWs)   bands (ev):

   -23.9859 -23.9799  -9.4869  -9.4006  -9.2930  -9.2382  -9.1637  -9.1205
    -5.8693  -5.0413  -4.7513  -4.4481  -1.3969  -0.9792  -0.9310  -0.1627
    -0.1506  -0.1352   0.1619   0.2810   0.3567   0.3702   0.5907   0.6674

          k = 0.0000 0.2437 0.3613 ( 24562 PWs)   bands (ev):

   -23.9788 -23.9745  -9.4657  -9.4269  -9.3502  -9.3376  -9.2328  -9.2246
    -5.4679  -4.9476  -4.6815  -4.5827  -1.1867  -1.1478  -0.9485  -0.3879
    -0.3467  -0.1585  -0.1417   0.3327   0.4111   0.4541   0.5608   0.6168

          k = 0.0000 0.2437-0.7226 ( 24596 PWs)   bands (ev):

   -23.9703 -23.9703  -9.6486  -9.6485  -9.2630  -9.2630  -9.2330  -9.2330
    -5.1459  -5.1459  -4.5036  -4.5035  -1.2550  -1.2544  -0.9497  -0.9489
    -0.0111  -0.0110   0.0251   0.0267   0.3832   0.3832   0.5603   0.5606

          k = 0.0000-0.4874 0.0000 ( 24610 PWs)   bands (ev):

   -23.9829 -23.9829  -9.4065  -9.4065  -9.3162  -9.3162  -9.1419  -9.1419
    -5.3761  -5.3761  -4.7311  -4.7311  -1.0992  -1.0992  -0.4693  -0.4693
    -0.2285  -0.2285   0.2682   0.2682   0.4049   0.4049   0.5261   0.5261

          k = 0.0000-0.4874 0.3613 ( 24592 PWs)   bands (ev):

   -23.9766 -23.9766  -9.4645  -9.4645  -9.2964  -9.2964  -9.2609  -9.2609
    -5.2064  -5.2064  -4.6574  -4.6574  -1.1301  -1.1301  -0.7216  -0.7216
    -0.1094  -0.1094   0.1735   0.1735   0.3231   0.3231   0.5369   0.5369

          k = 0.0000-0.4874-0.7226 ( 24560 PWs)   bands (ev):

   -23.9703 -23.9703  -9.6608  -9.6608  -9.2482  -9.2482  -9.2301  -9.2301
    -5.2730  -5.2730  -4.3660  -4.3660  -1.3444  -1.3444  -0.7088  -0.7088
    -0.0856  -0.0856   0.1031   0.1031   0.1904   0.1904   0.5968   0.5968

          k = 0.2499 0.0000 0.0000 ( 24502 PWs)   bands (ev):

   -23.9859 -23.9799  -9.4777  -9.4116  -9.2837  -9.2541  -9.1638  -9.1205
    -5.8781  -5.1637  -4.5095  -4.4725  -1.5633  -0.7147  -0.7075  -0.5721
    -0.0274   0.0064   0.0754   0.1366   0.2383   0.2578   0.6424   0.6798

          k = 0.2499 0.0000 0.3613 ( 24605 PWs)   bands (ev):

   -23.9787 -23.9745  -9.4566  -9.4384  -9.3782  -9.3144  -9.2485  -9.2127
    -5.4258  -4.8620  -4.6711  -4.6703  -1.3442  -1.1052  -0.9531  -0.4416
    -0.4228  -0.1546   0.0713   0.2068   0.3409   0.4720   0.6602   0.6879

          k = 0.2499 0.0000-0.7226 ( 24622 PWs)   bands (ev):

   -23.9703 -23.9703  -9.6532  -9.6530  -9.2678  -9.2677  -9.2304  -9.2304
    -4.9474  -4.9470  -4.6828  -4.6824  -1.6011  -1.6006  -0.6883  -0.6879
    -0.0918  -0.0915   0.2318   0.2332   0.3587   0.3587   0.6005   0.6009

          k = 0.2499 0.2437 0.0000 ( 24553 PWs)   bands (ev):

   -23.9850 -23.9808  -9.5043  -9.3883  -9.3338  -9.2105  -9.1571  -9.1266
    -5.7368  -5.1228  -4.7450  -4.5088  -1.2792  -0.9497  -0.7320  -0.2742
    -0.1996  -0.1535   0.1416   0.2905   0.3033   0.3849   0.4518   0.5986

          k = 0.2499 0.2437 0.3613 ( 24573 PWs)   bands (ev):

   -23.9781 -23.9751  -9.4587  -9.4201  -9.4142  -9.2957  -9.2582  -9.2065
    -5.3378  -4.8972  -4.7649  -4.6604  -1.3074  -1.0647  -0.9795  -0.4308
    -0.2681  -0.0943   0.0070   0.2254   0.3216   0.4345   0.5826   0.6668

          k = 0.2499 0.2437-0.7226 ( 24598 PWs)   bands (ev):

   -23.9703 -23.9703  -9.6601  -9.6370  -9.2883  -9.2498  -9.2376  -9.2310
    -5.1551  -4.9791  -4.6437  -4.4629  -1.5773  -1.4982  -0.7569  -0.6558
    -0.1384  -0.1367   0.2045   0.2638   0.3759   0.4164   0.5498   0.5799

          k = 0.2499-0.4874 0.0000 ( 24554 PWs)   bands (ev):

   -23.9829 -23.9829  -9.4793  -9.4793  -9.2441  -9.2441  -9.1416  -9.1416
    -5.3766  -5.3766  -4.7208  -4.7208  -1.0047  -1.0047  -0.4799  -0.4799
    -0.2651  -0.2651   0.2042   0.2042   0.4411   0.4411   0.4586   0.4586

          k = 0.2499-0.4874 0.3613 ( 24582 PWs)   bands (ev):

   -23.9766 -23.9766  -9.4535  -9.4535  -9.3556  -9.3556  -9.2200  -9.2200
    -5.1185  -5.1185  -4.7268  -4.7268  -1.2165  -1.2165  -0.6553  -0.6553
    -0.1266  -0.1266   0.1931   0.1931   0.3330   0.3330   0.5558   0.5558

          k = 0.2499-0.4874-0.7226 ( 24592 PWs)   bands (ev):

   -23.9703 -23.9703  -9.6450  -9.6450  -9.2710  -9.2710  -9.2365  -9.2365
    -5.1669  -5.1669  -4.4440  -4.4440  -1.4665  -1.4665  -0.7711  -0.7711
    -0.0257  -0.0257   0.1028   0.1028   0.4054   0.4054   0.5696   0.5696

          k =-0.4998 0.0000 0.0000 ( 24540 PWs)   bands (ev):

   -23.9829 -23.9829  -9.3855  -9.3855  -9.3455  -9.3455  -9.1419  -9.1419
    -5.4546  -5.4546  -4.5719  -4.5719  -1.1439  -1.1439  -0.3564  -0.3564
     0.0115   0.0115   0.0208   0.0208   0.1199   0.1199   0.5328   0.5328

          k =-0.4998 0.0000 0.3613 ( 24602 PWs)   bands (ev):

   -23.9766 -23.9766  -9.4680  -9.4680  -9.3175  -9.3175  -9.2473  -9.2473
    -5.0805  -5.0805  -4.7340  -4.7340  -1.2673  -1.2673  -0.7131  -0.7131
    -0.1289  -0.1289   0.0615   0.0615   0.4362   0.4362   0.6467   0.6467

          k =-0.4998 0.0000-0.7226 ( 24596 PWs)   bands (ev):

   -23.9703 -23.9703  -9.6697  -9.6697  -9.2573  -9.2573  -9.2257  -9.2257
    -4.9883  -4.9883  -4.6095  -4.6095  -1.8114  -1.8114  -0.4002  -0.4002
    -0.0985  -0.0985   0.0729   0.0729   0.5444   0.5444   0.5608   0.5608

          k =-0.4998 0.2437 0.0000 ( 24526 PWs)   bands (ev):

   -23.9829 -23.9829  -9.4778  -9.4778  -9.2498  -9.2498  -9.1416  -9.1416
    -5.4196  -5.4196  -4.6376  -4.6376  -1.0395  -1.0395  -0.3630  -0.3630
    -0.1982  -0.1982  -0.0159  -0.0159   0.3515   0.3515   0.5122   0.5122

          k =-0.4998 0.2437 0.3613 ( 24598 PWs)   bands (ev):

   -23.9766 -23.9766  -9.4558  -9.4558  -9.3599  -9.3599  -9.2188  -9.2188
    -5.0371  -5.0371  -4.7834  -4.7834  -1.2726  -1.2726  -0.6876  -0.6876
    -0.0937  -0.0937   0.1094   0.1094   0.4279   0.4279   0.5796   0.5796

          k =-0.4998 0.2437-0.7226 ( 24624 PWs)   bands (ev):

   -23.9703 -23.9703  -9.6498  -9.6498  -9.2737  -9.2737  -9.2357  -9.2357
    -5.0091  -5.0091  -4.5810  -4.5810  -1.7107  -1.7107  -0.6079  -0.6079
    -0.0527  -0.0527   0.1427   0.1427   0.4833   0.4833   0.6206   0.6206

          k =-0.4998-0.4874 0.0000 ( 24516 PWs)   bands (ev):

   -23.9828 -23.9828  -9.5221  -9.5221  -9.2019  -9.2019  -9.1412  -9.1412
    -5.3789  -5.3789  -4.7079  -4.7079  -0.8899  -0.8899  -0.5125  -0.5125
    -0.2983  -0.2983   0.1743   0.1743   0.3574   0.3574   0.4739   0.4739

          k =-0.4998-0.4874 0.3613 ( 24576 PWs)   bands (ev):

   -23.9766 -23.9766  -9.4317  -9.4317  -9.4028  -9.4028  -9.2018  -9.2018
    -4.9639  -4.9639  -4.8622  -4.8622  -1.2598  -1.2598  -0.7297  -0.7297
     0.0592   0.0592   0.1941   0.1941   0.3391   0.3391   0.4868   0.4868

          k =-0.4998-0.4874-0.7226 ( 24560 PWs)   bands (ev):

   -23.9703 -23.9703  -9.6272  -9.6272  -9.2962  -9.2962  -9.2423  -9.2423
    -5.0281  -5.0281  -4.5541  -4.5541  -1.5553  -1.5553  -0.8975  -0.8975
     0.1685   0.1685   0.2131   0.2131   0.3594   0.3594   0.5889   0.5889

     highest occupied level (ev):     0.7351

!    total energy              =    -156.47436874 Ry
     estimated scf accuracy    <          1.9E-11 Ry

     The total energy is the sum of the following terms:
     one-electron contribution =     -22.96923311 Ry
     hartree contribution      =      25.73085458 Ry
     xc contribution           =     -49.09616460 Ry
     ewald contribution        =    -110.13982560 Ry

     convergence has been achieved in   7 iterations

     Forces acting on atoms (cartesian axes, Ry/au):

     atom    1 type  2   force =     0.00000000    0.00000000    0.00000586
     atom    2 type  2   force =     0.00000000    0.00000000   -0.00000586
     atom    3 type  1   force =     0.00018246    0.00040603   -0.00000875
     atom    4 type  1   force =    -0.00018246   -0.00040603   -0.00000875
     atom    5 type  1   force =     0.00018246   -0.00040603    0.00000875
     atom    6 type  1   force =    -0.00018246    0.00040603    0.00000875
     atom    7 type  3   force =     0.00034127    0.00013667   -0.00001722
     atom    8 type  3   force =    -0.00034127   -0.00013667   -0.00001722
     atom    9 type  3   force =     0.00034127   -0.00013667    0.00001722
     atom   10 type  3   force =    -0.00034127    0.00013667    0.00001722
     atom   11 type  3   force =    -0.00013901    0.00026841    0.00000294
     atom   12 type  3   force =     0.00013901   -0.00026841    0.00000294
     atom   13 type  3   force =    -0.00013901   -0.00026841   -0.00000294
     atom   14 type  3   force =     0.00013901    0.00026841   -0.00000294
     atom   15 type  3   force =     0.00020044    0.00026106    0.00004708
     atom   16 type  3   force =    -0.00020044   -0.00026106    0.00004708
     atom   17 type  3   force =     0.00020044   -0.00026106   -0.00004708
     atom   18 type  3   force =    -0.00020044    0.00026106   -0.00004708
     atom   19 type  3   force =    -0.00016313   -0.00027247   -0.00005349
     atom   20 type  3   force =     0.00016313    0.00027247   -0.00005349
     atom   21 type  3   force =    -0.00016313    0.00027247    0.00005349
     atom   22 type  3   force =     0.00016313   -0.00027247    0.00005349

     Total force =     0.001599     Total SCF correction =     0.000002


     Computing stress (Cartesian axis) and pressure

          total   stress  (Ry/bohr**3)                   (kbar)     P=       -5.25
  -0.00003323   0.00000000   0.00000000           -4.89        0.00        0.00
   0.00000000  -0.00003333   0.00000000            0.00       -4.90        0.00
   0.00000000   0.00000000  -0.00004045            0.00        0.00       -5.95

     Volume is kept fixed: isostatic pressure set to zero
     Energy error            =      2.5E-04 Ry
     Gradient error          =      4.1E-04 Ry/Bohr
     Cell gradient error     =      7.0E-01 kbar

     number of scf cycles    =   3
     number of bfgs steps    =   2

     enthalpy           old  =    -156.4741198527 Ry
     enthalpy           new  =    -156.4743687382 Ry

     CASE: enthalpy          _new < enthalpy          _old

     new trust radius        =       0.0011122158 bohr
ibrav =      8
 celldm(1) =     12.70870970
 celldm(2) =      1.02547644
 celldm(3) =      0.69148862
Input lattice vectors:
     1.00046705     0.00000000     0.00000000
     0.00000000     1.02595539     0.00000000
     0.00000000     0.00000000     0.69181158
New lattice vectors in INITIAL alat:
     1.00046705     0.00000000     0.00000000
     0.00000000     1.02595539     0.00000000
     0.00000000     0.00000000     0.69181158
New lattice vectors in NEW alat (for information only):
     1.00000000     0.00000000     0.00000000
     0.00000000     1.02547644     0.00000000
     0.00000000     0.00000000     0.69148862
Discrepancy in bohr =     0.000000    0.000000    0.000000
     new conv_thr            =            2.5E-11 Ry

     new unit-cell volume =   1455.50969 a.u.^3 (   215.68428 Ang^3 )
     density =      2.57164 g/cm^3

CELL_PARAMETERS (alat= 12.70277685)
   1.000467051   0.000000000   0.000000000
   0.000000000   1.025955388   0.000000000
   0.000000000   0.000000000   0.691811582

ATOMIC_POSITIONS (crystal)
Ba               0.5000000000        0.5000000000        0.5001041971
Ba               0.0000000000        0.0000000000        0.9998958029
B                0.6103143850        0.2394149321        0.0000598640
B                0.3896856150        0.7605850679        0.0000598640
B                0.1103143850        0.2605850679        0.4999401360
B                0.8896856150        0.7394149321        0.4999401360
H                0.4352116839        0.2919147365        0.0002217208
H                0.5647883161        0.7080852635        0.0002217208
H                0.9352116839        0.2080852635        0.4997782792
H                0.0647883161        0.7919147365        0.4997782792
H                0.7213298084        0.3827640328       -0.0000057810
H                0.2786701916        0.6172359672       -0.0000057810
H                0.2213298084        0.1172359672        0.5000057810
H                0.7786701916        0.8827640328        0.5000057810
H                0.6391578170        0.1427328687        0.7818622365
H                0.3608421830        0.8572671313        0.7818622365
H                0.1391578170        0.3572671313        0.7181377635
H                0.8608421830        0.6427328687        0.7181377635
H                0.3606412683        0.8573116189        0.2181568768
H                0.6393587317        0.1426883811        0.2181568768
H                0.8606412683        0.6426883811        0.2818431232
H                0.1393587317        0.3573116189        0.2818431232



     Writing config-only to output data dir ./pwscf.save/ :
     XML data file
     NEW-OLD atomic charge density approx. for the potential

     total cpu time spent up to now is      232.2 secs

     Self-consistent Calculation

     iteration #  1     ecut=   100.00 Ry     beta= 0.70
     Davidson diagonalization with overlap
     ethr =  1.00E-06,  avg # of iterations =  1.0

     Threshold (ethr) on eigenvalues was too large:
     Diagonalizing with lowered threshold

     Davidson diagonalization with overlap
     ethr =  6.96E-10,  avg # of iterations =  4.0

     total cpu time spent up to now is      246.8 secs

     total energy              =    -156.47437261 Ry
     estimated scf accuracy    <       0.00000126 Ry

     iteration #  2     ecut=   100.00 Ry     beta= 0.70
     Davidson diagonalization with overlap
     ethr =  2.62E-09,  avg # of iterations =  2.0

     total cpu time spent up to now is      253.5 secs

     total energy              =    -156.47437296 Ry
     estimated scf accuracy    <       0.00000024 Ry

     iteration #  3     ecut=   100.00 Ry     beta= 0.70
     Davidson diagonalization with overlap
     ethr =  5.08E-10,  avg # of iterations =  2.0

     total cpu time spent up to now is      260.2 secs

     total energy              =    -156.47437300 Ry
     estimated scf accuracy    <          3.9E-09 Ry

     iteration #  4     ecut=   100.00 Ry     beta= 0.70
     Davidson diagonalization with overlap
     ethr =  8.15E-12,  avg # of iterations =  3.0

     total cpu time spent up to now is      268.2 secs

     total energy              =    -156.47437300 Ry
     estimated scf accuracy    <          1.1E-09 Ry

     iteration #  5     ecut=   100.00 Ry     beta= 0.70
     Davidson diagonalization with overlap
     ethr =  2.28E-12,  avg # of iterations =  2.9

     total cpu time spent up to now is      275.1 secs

     End of self-consistent calculation

          k = 0.0000 0.0000 0.0000 ( 24527 PWs)   bands (ev):

   -23.9874 -23.9789  -9.5160  -9.4304  -9.2419  -9.2042  -9.1731  -9.1120
    -6.0669  -5.1314  -4.4726  -4.3220  -1.7537  -0.8558  -0.7973  -0.4503
    -0.0678  -0.0484  -0.0075   0.1167   0.2817   0.6759   0.6942   0.7329

          k = 0.0000 0.0000 0.3614 ( 24574 PWs)   bands (ev):

   -23.9798 -23.9738  -9.4226  -9.4213  -9.3971  -9.3649  -9.2243  -9.2036
    -5.5736  -4.8762  -4.6408  -4.5444  -1.3752  -1.1243  -0.6662  -0.6232
    -0.4778  -0.3624  -0.0023   0.2802   0.4782   0.5104   0.5887   0.7331

          k = 0.0000 0.0000-0.7227 ( 24616 PWs)   bands (ev):

   -23.9705 -23.9705  -9.6361  -9.6360  -9.2811  -9.2811  -9.2340  -9.2340
    -4.8712  -4.8708  -4.7916  -4.7911  -1.1365  -1.1359  -1.1230  -1.1215
    -0.0829  -0.0823  -0.0185  -0.0167   0.5498   0.5498   0.5652   0.5655

          k = 0.0000 0.2437 0.0000 ( 24565 PWs)   bands (ev):

   -23.9861 -23.9801  -9.4873  -9.4009  -9.2933  -9.2384  -9.1639  -9.1207
    -5.8703  -5.0430  -4.7525  -4.4497  -1.3978  -0.9799  -0.9317  -0.1626
    -0.1503  -0.1368   0.1603   0.2810   0.3547   0.3703   0.5893   0.6660

          k = 0.0000 0.2437 0.3614 ( 24562 PWs)   bands (ev):

   -23.9789 -23.9747  -9.4661  -9.4273  -9.3506  -9.3379  -9.2331  -9.2248
    -5.4688  -4.9488  -4.6830  -4.5844  -1.1870  -1.1482  -0.9490  -0.3880
    -0.3472  -0.1597  -0.1422   0.3317   0.4098   0.4524   0.5598   0.6153

          k = 0.0000 0.2437-0.7227 ( 24596 PWs)   bands (ev):

   -23.9705 -23.9705  -9.6494  -9.6493  -9.2632  -9.2632  -9.2332  -9.2332
    -5.1472  -5.1472  -4.5049  -4.5049  -1.2554  -1.2547  -0.9495  -0.9488
    -0.0122  -0.0121   0.0241   0.0258   0.3822   0.3822   0.5586   0.5588

          k = 0.0000-0.4874 0.0000 ( 24610 PWs)   bands (ev):

   -23.9831 -23.9831  -9.4069  -9.4069  -9.3165  -9.3165  -9.1421  -9.1421
    -5.3774  -5.3774  -4.7325  -4.7325  -1.0998  -1.0998  -0.4706  -0.4706
    -0.2282  -0.2282   0.2664   0.2664   0.4049   0.4049   0.5247   0.5247

          k = 0.0000-0.4874 0.3614 ( 24592 PWs)   bands (ev):

   -23.9768 -23.9768  -9.4650  -9.4650  -9.2968  -9.2968  -9.2611  -9.2611
    -5.2074  -5.2074  -4.6589  -4.6589  -1.1304  -1.1304  -0.7221  -0.7221
    -0.1101  -0.1101   0.1729   0.1729   0.3212   0.3212   0.5359   0.5359

          k = 0.0000-0.4874-0.7227 ( 24560 PWs)   bands (ev):

   -23.9705 -23.9705  -9.6615  -9.6615  -9.2483  -9.2483  -9.2304  -9.2304
    -5.2744  -5.2744  -4.3672  -4.3672  -1.3448  -1.3448  -0.7086  -0.7086
    -0.0869  -0.0869   0.1022   0.1022   0.1892   0.1892   0.5952   0.5952

          k = 0.2499 0.0000 0.0000 ( 24502 PWs)   bands (ev):

   -23.9861 -23.9801  -9.4781  -9.4119  -9.2840  -9.2543  -9.1639  -9.1207
    -5.8792  -5.1652  -4.5110  -4.4740  -1.5640  -0.7159  -0.7080  -0.5732
    -0.0271   0.0064   0.0754   0.1349   0.2384   0.2567   0.6408   0.6776

          k = 0.2499 0.0000 0.3614 ( 24605 PWs)   bands (ev):

   -23.9789 -23.9747  -9.4570  -9.4388  -9.3786  -9.3147  -9.2487  -9.2130
    -5.4266  -4.8632  -4.6728  -4.6720  -1.3442  -1.1058  -0.9532  -0.4422
    -0.4236  -0.1551   0.0702   0.2056   0.3402   0.4710   0.6583   0.6867

          k = 0.2499 0.0000-0.7227 ( 24622 PWs)   bands (ev):

   -23.9705 -23.9705  -9.6539  -9.6538  -9.2680  -9.2679  -9.2307  -9.2306
    -4.9490  -4.9486  -4.6839  -4.6836  -1.6010  -1.6005  -0.6885  -0.6882
    -0.0928  -0.0924   0.2308   0.2322   0.3573   0.3573   0.5991   0.5994

          k = 0.2499 0.2437 0.0000 ( 24553 PWs)   bands (ev):

   -23.9852 -23.9809  -9.5047  -9.3887  -9.3340  -9.2108  -9.1573  -9.1268
    -5.7380  -5.1245  -4.7462  -4.5102  -1.2802  -0.9505  -0.7328  -0.2754
    -0.1993  -0.1532   0.1401   0.2905   0.3016   0.3848   0.4504   0.5969

          k = 0.2499 0.2437 0.3614 ( 24573 PWs)   bands (ev):

   -23.9783 -23.9753  -9.4592  -9.4206  -9.4145  -9.2961  -9.2585  -9.2067
    -5.3388  -4.8986  -4.7664  -4.6621  -1.3075  -1.0649  -0.9802  -0.4314
    -0.2689  -0.0949   0.0061   0.2246   0.3202   0.4332   0.5814   0.6654

          k = 0.2499 0.2437-0.7227 ( 24598 PWs)   bands (ev):

   -23.9705 -23.9705  -9.6608  -9.6378  -9.2884  -9.2500  -9.2378  -9.2312
    -5.1566  -4.9806  -4.6450  -4.4641  -1.5773  -1.4981  -0.7572  -0.6559
    -0.1394  -0.1379   0.2038   0.2629   0.3740   0.4151   0.5489   0.5780

          k = 0.2499-0.4874 0.0000 ( 24554 PWs)   bands (ev):

   -23.9831 -23.9831  -9.4796  -9.4796  -9.2444  -9.2444  -9.1418  -9.1418
    -5.3781  -5.3781  -4.7221  -4.7221  -1.0056  -1.0056  -0.4811  -0.4811
    -0.2648  -0.2648   0.2027   0.2027   0.4410   0.4410   0.4571   0.4571

          k = 0.2499-0.4874 0.3614 ( 24582 PWs)   bands (ev):

   -23.9768 -23.9768  -9.4539  -9.4539  -9.3560  -9.3560  -9.2202  -9.2202
    -5.1197  -5.1197  -4.7283  -4.7283  -1.2166  -1.2166  -0.6560  -0.6560
    -0.1272  -0.1272   0.1922   0.1922   0.3314   0.3314   0.5547   0.5547

          k = 0.2499-0.4874-0.7227 ( 24592 PWs)   bands (ev):

   -23.9705 -23.9705  -9.6457  -9.6457  -9.2712  -9.2712  -9.2367  -9.2367
    -5.1683  -5.1683  -4.4452  -4.4452  -1.4665  -1.4665  -0.7713  -0.7713
    -0.0269  -0.0269   0.1019   0.1019   0.4040   0.4040   0.5682   0.5682

          k =-0.4998 0.0000 0.0000 ( 24540 PWs)   bands (ev):

   -23.9831 -23.9831  -9.3859  -9.3859  -9.3457  -9.3457  -9.1421  -9.1421
    -5.4559  -5.4559  -4.5734  -4.5734  -1.1448  -1.1448  -0.3571  -0.3571
     0.0120   0.0120   0.0195   0.0195   0.1197   0.1197   0.5307   0.5307

          k =-0.4998 0.0000 0.3614 ( 24602 PWs)   bands (ev):

   -23.9768 -23.9768  -9.4684  -9.4684  -9.3178  -9.3178  -9.2475  -9.2475
    -5.0817  -5.0817  -4.7356  -4.7356  -1.2672  -1.2672  -0.7139  -0.7139
    -0.1298  -0.1298   0.0606   0.0606   0.4355   0.4355   0.6451   0.6451

          k =-0.4998 0.0000-0.7227 ( 24596 PWs)   bands (ev):

   -23.9705 -23.9705  -9.6704  -9.6704  -9.2574  -9.2574  -9.2259  -9.2259
    -4.9901  -4.9901  -4.6105  -4.6105  -1.8112  -1.8112  -0.4005  -0.4005
    -0.0995  -0.0995   0.0717   0.0717   0.5434   0.5434   0.5590   0.5590

          k =-0.4998 0.2437 0.0000 ( 24526 PWs)   bands (ev):

   -23.9830 -23.9830  -9.4781  -9.4781  -9.2500  -9.2500  -9.1418  -9.1418
    -5.4211  -5.4211  -4.6389  -4.6389  -1.0405  -1.0405  -0.3639  -0.3639
    -0.1978  -0.1978  -0.0171  -0.0171   0.3514   0.3514   0.5103   0.5103

          k =-0.4998 0.2437 0.3614 ( 24598 PWs)   bands (ev):

   -23.9768 -23.9768  -9.4562  -9.4562  -9.3603  -9.3603  -9.2190  -9.2190
    -5.0383  -5.0383  -4.7849  -4.7849  -1.2725  -1.2725  -0.6883  -0.6883
    -0.0946  -0.0946   0.1085   0.1085   0.4271   0.4271   0.5781   0.5781

          k =-0.4998 0.2437-0.7227 ( 24624 PWs)   bands (ev):

   -23.9704 -23.9704  -9.6506  -9.6506  -9.2738  -9.2738  -9.2360  -9.2360
    -5.0108  -5.0108  -4.5821  -4.5821  -1.7105  -1.7105  -0.6082  -0.6082
    -0.0539  -0.0539   0.1417   0.1417   0.4817   0.4817   0.6194   0.6194

          k =-0.4998-0.4874 0.0000 ( 24516 PWs)   bands (ev):

   -23.9830 -23.9830  -9.5225  -9.5225  -9.2022  -9.2022  -9.1414  -9.1414
    -5.3805  -5.3805  -4.7090  -4.7090  -0.8912  -0.8912  -0.5134  -0.5134
    -0.2979  -0.2979   0.1727   0.1727   0.3560   0.3560   0.4738   0.4738

          k =-0.4998-0.4874 0.3614 ( 24576 PWs)   bands (ev):

   -23.9767 -23.9767  -9.4319  -9.4319  -9.4033  -9.4033  -9.2021  -9.2021
    -4.9652  -4.9652  -4.8636  -4.8636  -1.2599  -1.2599  -0.7304  -0.7304
     0.0583   0.0583   0.1929   0.1929   0.3378   0.3378   0.4861   0.4861

          k =-0.4998-0.4874-0.7227 ( 24560 PWs)   bands (ev):

   -23.9704 -23.9704  -9.6280  -9.6280  -9.2963  -9.2963  -9.2425  -9.2425
    -5.0297  -5.0297  -4.5553  -4.5553  -1.5552  -1.5552  -0.8977  -0.8977
     0.1676   0.1676   0.2115   0.2115   0.3577   0.3577   0.5880   0.5880

     highest occupied level (ev):     0.7331

!    total energy              =    -156.47437300 Ry
     estimated scf accuracy    <          1.6E-11 Ry

     The total energy is the sum of the following terms:
     one-electron contribution =     -22.99096463 Ry
     hartree contribution      =      25.74170038 Ry
     xc contribution           =     -49.09816207 Ry
     ewald contribution        =    -110.12694667 Ry

     convergence has been achieved in   5 iterations

     Forces acting on atoms (cartesian axes, Ry/au):

     atom    1 type  2   force =     0.00000000    0.00000000    0.00000428
     atom    2 type  2   force =     0.00000000    0.00000000   -0.00000428
     atom    3 type  1   force =     0.00017446    0.00033259   -0.00000794
     atom    4 type  1   force =    -0.00017446   -0.00033259   -0.00000794
     atom    5 type  1   force =     0.00017446   -0.00033259    0.00000794
     atom    6 type  1   force =    -0.00017446    0.00033259    0.00000794
     atom    7 type  3   force =     0.00017720    0.00017986   -0.00001763
     atom    8 type  3   force =    -0.00017720   -0.00017986   -0.00001763
     atom    9 type  3   force =     0.00017720   -0.00017986    0.00001763
     atom   10 type  3   force =    -0.00017720    0.00017986    0.00001763
     atom   11 type  3   force =    -0.00001002    0.00042577    0.00000254
     atom   12 type  3   force =     0.00001002   -0.00042577    0.00000254
     atom   13 type  3   force =    -0.00001002   -0.00042577   -0.00000254
     atom   14 type  3   force =     0.00001002    0.00042577   -0.00000254
     atom   15 type  3   force =     0.00022594    0.00018897   -0.00013083
     atom   16 type  3   force =    -0.00022594   -0.00018897   -0.00013083
     atom   17 type  3   force =     0.00022594   -0.00018897    0.00013083
     atom   18 type  3   force =    -0.00022594    0.00018897    0.00013083
     atom   19 type  3   force =    -0.00019050   -0.00019885    0.00012527
     atom   20 type  3   force =     0.00019050    0.00019885    0.00012527
     atom   21 type  3   force =    -0.00019050    0.00019885   -0.00012527
     atom   22 type  3   force =     0.00019050   -0.00019885   -0.00012527

     Total force =     0.001526     Total SCF correction =     0.000001


     Computing stress (Cartesian axis) and pressure

          total   stress  (Ry/bohr**3)                   (kbar)     P=       -5.00
  -0.00003182   0.00000000   0.00000000           -4.68        0.00        0.00
   0.00000000  -0.00003199   0.00000000            0.00       -4.71        0.00
   0.00000000   0.00000000  -0.00003809            0.00        0.00       -5.60

     Volume is kept fixed: isostatic pressure set to zero
     Energy error            =      4.3E-06 Ry
     Gradient error          =      4.3E-04 Ry/Bohr
     Cell gradient error     =      6.1E-01 kbar

     number of scf cycles    =   4
     number of bfgs steps    =   3

     enthalpy           old  =    -156.4743687382 Ry
     enthalpy           new  =    -156.4743729992 Ry

     CASE: enthalpy          _new < enthalpy          _old

     new trust radius        =       0.0016675202 bohr
ibrav =      8
 celldm(1) =     12.71015251
 celldm(2) =      1.02546769
 celldm(3) =      0.69125906
Input lattice vectors:
     1.00058063     0.00000000     0.00000000
     0.00000000     1.02606311     0.00000000
     0.00000000     0.00000000     0.69166042
New lattice vectors in INITIAL alat:
     1.00058063     0.00000000     0.00000000
     0.00000000     1.02606311     0.00000000
     0.00000000     0.00000000     0.69166042
New lattice vectors in NEW alat (for information only):
     1.00000000     0.00000000     0.00000000
     0.00000000     1.02546769     0.00000000
     0.00000000     0.00000000     0.69125906
Discrepancy in bohr =     0.000000    0.000000    0.000000
     new conv_thr            =            1.0E-12 Ry

     new unit-cell volume =   1455.50969 a.u.^3 (   215.68428 Ang^3 )
     density =      2.57164 g/cm^3

CELL_PARAMETERS (alat= 12.70277685)
   1.000580633   0.000000000   0.000000000
   0.000000000   1.026063115   0.000000000
   0.000000000   0.000000000   0.691660424

ATOMIC_POSITIONS (crystal)
Ba               0.5000000000        0.5000000000        0.5001053208
Ba               0.0000000000        0.0000000000        0.9998946792
B                0.6103412709        0.2394703481        0.0000580220
B                0.3896587291        0.7605296519        0.0000580220
B                0.1103412709        0.2605296519        0.4999419780
B                0.8896587291        0.7394703481        0.4999419780
H                0.4352699561        0.2919326549        0.0002178813
H                0.5647300439        0.7080673451        0.0002178813
H                0.9352699561        0.2080673451        0.4997821187
H                0.0647300439        0.7919326549        0.4997821187
H                0.7213057557        0.3827987998       -0.0000051651
H                0.2786942443        0.6172012002       -0.0000051651
H                0.2213057557        0.1172012002        0.5000051651
H                0.7786942443        0.8827987998        0.5000051651
H                0.6391871354        0.1427768836        0.7818778897
H                0.3608128646        0.8572231164        0.7818778897
H                0.1391871354        0.3572231164        0.7181221103
H                0.8608128646        0.6427768836        0.7181221103
H                0.3606175223        0.8572660070        0.2181399082
H                0.6393824777        0.1427339930        0.2181399082
H                0.8606175223        0.6427339930        0.2818600918
H                0.1393824777        0.3572660070        0.2818600918



     Writing config-only to output data dir ./pwscf.save/ :
     XML data file
     NEW-OLD atomic charge density approx. for the potential

     total cpu time spent up to now is      283.3 secs

     Self-consistent Calculation

     iteration #  1     ecut=   100.00 Ry     beta= 0.70
     Davidson diagonalization with overlap
     ethr =  1.00E-06,  avg # of iterations =  1.1

     Threshold (ethr) on eigenvalues was too large:
     Diagonalizing with lowered threshold

     Davidson diagonalization with overlap
     ethr =  7.88E-10,  avg # of iterations =  4.3

     total cpu time spent up to now is      298.6 secs

     total energy              =    -156.47437815 Ry
     estimated scf accuracy    <       0.00000104 Ry

     iteration #  2     ecut=   100.00 Ry     beta= 0.70
     Davidson diagonalization with overlap
     ethr =  2.17E-09,  avg # of iterations =  2.0

     total cpu time spent up to now is      305.3 secs

     total energy              =    -156.47437838 Ry
     estimated scf accuracy    <       0.00000010 Ry

     iteration #  3     ecut=   100.00 Ry     beta= 0.70
     Davidson diagonalization with overlap
     ethr =  2.12E-10,  avg # of iterations =  2.0

     total cpu time spent up to now is      312.1 secs

     total energy              =    -156.47437839 Ry
     estimated scf accuracy    <          3.0E-09 Ry

     iteration #  4     ecut=   100.00 Ry     beta= 0.70
     Davidson diagonalization with overlap
     ethr =  6.24E-12,  avg # of iterations =  4.2

     total cpu time spent up to now is      320.1 secs

     total energy              =    -156.47437839 Ry
     estimated scf accuracy    <          4.4E-10 Ry

     iteration #  5     ecut=   100.00 Ry     beta= 0.70
     Davidson diagonalization with overlap
     ethr =  9.14E-13,  avg # of iterations =  3.9

     total cpu time spent up to now is      328.0 secs

     total energy              =    -156.47437839 Ry
     estimated scf accuracy    <          1.0E-11 Ry

     iteration #  6     ecut=   100.00 Ry     beta= 0.70
     Davidson diagonalization with overlap
     ethr =  1.00E-13,  avg # of iterations =  4.1

     total cpu time spent up to now is      335.9 secs

     total energy              =    -156.47437839 Ry
     estimated scf accuracy    <          2.4E-12 Ry

     iteration #  7     ecut=   100.00 Ry     beta= 0.70
     Davidson diagonalization with overlap
     ethr =  1.00E-13,  avg # of iterations =  1.0

     total cpu time spent up to now is      341.1 secs

     End of self-consistent calculation

          k = 0.0000 0.0000 0.0000 ( 24527 PWs)   bands (ev):

   -23.9872 -23.9787  -9.5162  -9.4305  -9.2420  -9.2041  -9.1729  -9.1119
    -6.0676  -5.1325  -4.4737  -4.3233  -1.7548  -0.8565  -0.7978  -0.4521
    -0.0675  -0.0501  -0.0062   0.1168   0.2827   0.6745   0.6931   0.7305

          k = 0.0000 0.0000 0.3614 ( 24574 PWs)   bands (ev):

   -23.9797 -23.9737  -9.4227  -9.4217  -9.3976  -9.3649  -9.2243  -9.2035
    -5.5739  -4.8768  -4.6422  -4.5460  -1.3756  -1.1248  -0.6670  -0.6239
    -0.4778  -0.3621  -0.0029   0.2796   0.4774   0.5087   0.5879   0.7311

          k = 0.0000 0.0000-0.7229 ( 24616 PWs)   bands (ev):

   -23.9703 -23.9703  -9.6369  -9.6368  -9.2809  -9.2809  -9.2340  -9.2339
    -4.8712  -4.8708  -4.7933  -4.7928  -1.1362  -1.1356  -1.1236  -1.1222
    -0.0836  -0.0830  -0.0191  -0.0173   0.5477   0.5478   0.5642   0.5644

          k = 0.0000 0.2436 0.0000 ( 24565 PWs)   bands (ev):

   -23.9860 -23.9800  -9.4875  -9.4010  -9.2934  -9.2384  -9.1638  -9.1206
    -5.8712  -5.0444  -4.7533  -4.4509  -1.3992  -0.9806  -0.9324  -0.1620
    -0.1494  -0.1385   0.1585   0.2814   0.3526   0.3710   0.5880   0.6648

          k = 0.0000 0.2436 0.3614 ( 24562 PWs)   bands (ev):

   -23.9788 -23.9745  -9.4663  -9.4277  -9.3508  -9.3379  -9.2332  -9.2247
    -5.4692  -4.9495  -4.6842  -4.5858  -1.1876  -1.1487  -0.9496  -0.3878
    -0.3476  -0.1607  -0.1424   0.3309   0.4087   0.4505   0.5591   0.6139

          k = 0.0000 0.2436-0.7229 ( 24596 PWs)   bands (ev):

   -23.9703 -23.9703  -9.6501  -9.6500  -9.2630  -9.2630  -9.2332  -9.2332
    -5.1480  -5.1480  -4.5058  -4.5057  -1.2560  -1.2553  -0.9493  -0.9486
    -0.0131  -0.0130   0.0233   0.0249   0.3813   0.3813   0.5567   0.5569

          k = 0.0000-0.4873 0.0000 ( 24610 PWs)   bands (ev):

   -23.9830 -23.9830  -9.4071  -9.4071  -9.3164  -9.3164  -9.1420  -9.1420
    -5.3785  -5.3785  -4.7335  -4.7335  -1.1007  -1.1007  -0.4722  -0.4722
    -0.2273  -0.2273   0.2645   0.2645   0.4053   0.4053   0.5235   0.5235

          k = 0.0000-0.4873 0.3614 ( 24592 PWs)   bands (ev):

   -23.9766 -23.9766  -9.4652  -9.4652  -9.2970  -9.2970  -9.2611  -9.2611
    -5.2080  -5.2080  -4.6601  -4.6601  -1.1308  -1.1308  -0.7227  -0.7227
    -0.1106  -0.1106   0.1727   0.1727   0.3192   0.3192   0.5350   0.5350

          k = 0.0000-0.4873-0.7229 ( 24560 PWs)   bands (ev):

   -23.9703 -23.9703  -9.6622  -9.6622  -9.2482  -9.2482  -9.2303  -9.2303
    -5.2753  -5.2753  -4.3680  -4.3680  -1.3454  -1.3454  -0.7083  -0.7083
    -0.0882  -0.0882   0.1016   0.1016   0.1881   0.1881   0.5935   0.5935

          k = 0.2499 0.0000 0.0000 ( 24502 PWs)   bands (ev):

   -23.9860 -23.9799  -9.4783  -9.4120  -9.2841  -9.2543  -9.1638  -9.1206
    -5.8801  -5.1665  -4.5121  -4.4752  -1.5652  -0.7174  -0.7085  -0.5741
    -0.0262   0.0070   0.0760   0.1329   0.2391   0.2559   0.6394   0.6752

          k = 0.2499 0.0000 0.3614 ( 24605 PWs)   bands (ev):

   -23.9788 -23.9745  -9.4573  -9.4391  -9.3787  -9.3148  -9.2487  -9.2130
    -5.4271  -4.8639  -4.6742  -4.6733  -1.3442  -1.1065  -0.9533  -0.4428
    -0.4243  -0.1553   0.0692   0.2046   0.3398   0.4701   0.6563   0.6856

          k = 0.2499 0.0000-0.7229 ( 24622 PWs)   bands (ev):

   -23.9703 -23.9703  -9.6547  -9.6545  -9.2678  -9.2677  -9.2306  -9.2306
    -4.9502  -4.9499  -4.6845  -4.6842  -1.6010  -1.6005  -0.6887  -0.6884
    -0.0935  -0.0932   0.2299   0.2313   0.3557   0.3557   0.5977   0.5981

          k = 0.2499 0.2436 0.0000 ( 24553 PWs)   bands (ev):

   -23.9851 -23.9808  -9.5048  -9.3889  -9.3340  -9.2108  -9.1572  -9.1267
    -5.7390  -5.1260  -4.7469  -4.5113  -1.2816  -0.9513  -0.7336  -0.2766
    -0.1985  -0.1524   0.1385   0.2909   0.2996   0.3853   0.4491   0.5952

          k = 0.2499 0.2436 0.3614 ( 24573 PWs)   bands (ev):

   -23.9781 -23.9751  -9.4594  -9.4210  -9.4145  -9.2962  -9.2585  -9.2067
[...]
        18        H      tau(  18) = (   0.8609555   0.6617281   0.4955001  )
        19        H      tau(  19) = (   0.3581958   0.8759853   0.1510751  )
        20        H      tau(  20) = (   0.6473545   0.1491596   0.1510751  )
        21        H      tau(  21) = (   0.8609709   0.6617320   0.1933541  )
        22        H      tau(  22) = (   0.1445793   0.3634129   0.1933541  )

     number of k points=    27
                       cart. coord. in units 2pi/alat
        k(    1) = (   0.0000000   0.0000000   0.0000000), wk =   0.0312500
        k(    2) = (   0.0000000   0.0000000   0.3629192), wk =   0.0625000
        k(    3) = (   0.0000000   0.0000000  -0.7258384), wk =   0.0312500
        k(    4) = (   0.0000000   0.2438680   0.0000000), wk =   0.0625000
        k(    5) = (   0.0000000   0.2438680   0.3629192), wk =   0.1250000
        k(    6) = (   0.0000000   0.2438680  -0.7258384), wk =   0.0625000
        k(    7) = (   0.0000000  -0.4877359   0.0000000), wk =   0.0312500
        k(    8) = (   0.0000000  -0.4877359   0.3629192), wk =   0.0625000
        k(    9) = (   0.0000000  -0.4877359  -0.7258384), wk =   0.0312500
        k(   10) = (   0.2486201   0.0000000   0.0000000), wk =   0.0625000
        k(   11) = (   0.2486201   0.0000000   0.3629192), wk =   0.1250000
        k(   12) = (   0.2486201   0.0000000  -0.7258384), wk =   0.0625000
        k(   13) = (   0.2486201   0.2438680   0.0000000), wk =   0.1250000
        k(   14) = (   0.2486201   0.2438680   0.3629192), wk =   0.2500000
        k(   15) = (   0.2486201   0.2438680  -0.7258384), wk =   0.1250000
        k(   16) = (   0.2486201  -0.4877359   0.0000000), wk =   0.0625000
        k(   17) = (   0.2486201  -0.4877359   0.3629192), wk =   0.1250000
        k(   18) = (   0.2486201  -0.4877359  -0.7258384), wk =   0.0625000
        k(   19) = (  -0.4972402   0.0000000   0.0000000), wk =   0.0312500
        k(   20) = (  -0.4972402   0.0000000   0.3629192), wk =   0.0625000
        k(   21) = (  -0.4972402   0.0000000  -0.7258384), wk =   0.0312500
        k(   22) = (  -0.4972402   0.2438680   0.0000000), wk =   0.0625000
        k(   23) = (  -0.4972402   0.2438680   0.3629192), wk =   0.1250000
        k(   24) = (  -0.4972402   0.2438680  -0.7258384), wk =   0.0625000
        k(   25) = (  -0.4972402  -0.4877359   0.0000000), wk =   0.0312500
        k(   26) = (  -0.4972402  -0.4877359   0.3629192), wk =   0.0625000
        k(   27) = (  -0.4972402  -0.4877359  -0.7258384), wk =   0.0312500

     Dense  grid:   556213 G-vectors     FFT dimensions: ( 120, 120,  80)

     Smooth grid:   196669 G-vectors     FFT dimensions: (  90,  90,  60)

     Estimated max dynamical RAM per process >     121.30 MB

     Estimated total dynamical RAM >       1.90 GB

     Initial potential from superposition of free atoms

     starting charge      47.9682, renormalised to      48.0000
     Starting wfcs are   42 randomized atomic wfcs

     total cpu time spent up to now is     3462.3 secs

     Self-consistent Calculation

     iteration #  1     ecut=   100.00 Ry     beta= 0.70
     Davidson diagonalization with overlap
     ethr =  1.00E-06,  avg # of iterations = 11.0

     total cpu time spent up to now is     3484.5 secs

     total energy              =    -155.84304606 Ry
     estimated scf accuracy    <       2.24165422 Ry

     iteration #  2     ecut=   100.00 Ry     beta= 0.70
     Davidson diagonalization with overlap
     ethr =  4.67E-03,  avg # of iterations =  2.0

     total cpu time spent up to now is     3491.2 secs

     total energy              =    -156.39914504 Ry
     estimated scf accuracy    <       0.46315408 Ry

     iteration #  3     ecut=   100.00 Ry     beta= 0.70
     Davidson diagonalization with overlap
     ethr =  9.65E-04,  avg # of iterations =  2.0

     total cpu time spent up to now is     3497.9 secs

     total energy              =    -156.47176775 Ry
     estimated scf accuracy    <       0.00563326 Ry

     iteration #  4     ecut=   100.00 Ry     beta= 0.70
     Davidson diagonalization with overlap
     ethr =  1.17E-05,  avg # of iterations =  3.3

     total cpu time spent up to now is     3506.4 secs

     total energy              =    -156.47382305 Ry
     estimated scf accuracy    <       0.00221780 Ry

     iteration #  5     ecut=   100.00 Ry     beta= 0.70
     Davidson diagonalization with overlap
     ethr =  4.62E-06,  avg # of iterations =  3.4

     total cpu time spent up to now is     3513.6 secs

     total energy              =    -156.47445941 Ry
     estimated scf accuracy    <       0.00004986 Ry

     iteration #  6     ecut=   100.00 Ry     beta= 0.70
     Davidson diagonalization with overlap
     ethr =  1.04E-07,  avg # of iterations =  6.1

     total cpu time spent up to now is     3525.1 secs

     total energy              =    -156.47455485 Ry
     estimated scf accuracy    <       0.00001687 Ry

     iteration #  7     ecut=   100.00 Ry     beta= 0.70
     Davidson diagonalization with overlap
     ethr =  3.51E-08,  avg # of iterations =  2.7

     total cpu time spent up to now is     3532.1 secs

     total energy              =    -156.47455875 Ry
     estimated scf accuracy    <       0.00000010 Ry

     iteration #  8     ecut=   100.00 Ry     beta= 0.70
     Davidson diagonalization with overlap
     ethr =  2.17E-10,  avg # of iterations =  7.4

     total cpu time spent up to now is     3546.3 secs

     total energy              =    -156.47455915 Ry
     estimated scf accuracy    <       0.00000011 Ry

     iteration #  9     ecut=   100.00 Ry     beta= 0.70
     Davidson diagonalization with overlap
     ethr =  2.17E-10,  avg # of iterations =  2.0

     total cpu time spent up to now is     3553.1 secs

     total energy              =    -156.47455916 Ry
     estimated scf accuracy    <          7.4E-09 Ry

     iteration # 10     ecut=   100.00 Ry     beta= 0.70
     Davidson diagonalization with overlap
     ethr =  1.55E-11,  avg # of iterations =  3.9

     total cpu time spent up to now is     3560.8 secs

     total energy              =    -156.47455917 Ry
     estimated scf accuracy    <          1.4E-10 Ry

     iteration # 11     ecut=   100.00 Ry     beta= 0.70
     Davidson diagonalization with overlap
     ethr =  3.01E-13,  avg # of iterations =  7.8

     total cpu time spent up to now is     3576.0 secs

     total energy              =    -156.47455917 Ry
     estimated scf accuracy    <          6.8E-11 Ry

     iteration # 12     ecut=   100.00 Ry     beta= 0.70
     Davidson diagonalization with overlap
     ethr =  1.42E-13,  avg # of iterations =  2.4

     total cpu time spent up to now is     3583.4 secs

     total energy              =    -156.47455917 Ry
     estimated scf accuracy    <          1.2E-12 Ry

     iteration # 13     ecut=   100.00 Ry     beta= 0.70
     Davidson diagonalization with overlap
     ethr =  1.00E-13,  avg # of iterations =  1.0

     total cpu time spent up to now is     3588.5 secs

     End of self-consistent calculation

          k = 0.0000 0.0000 0.0000 ( 24575 PWs)   bands (ev):

   -23.9662 -23.9576  -9.5095  -9.4269  -9.2305  -9.1906  -9.1565  -9.0946
    -6.0781  -5.1413  -4.4765  -4.3444  -1.7742  -0.8567  -0.8023  -0.4510
    -0.1103  -0.0966   0.0045   0.0663   0.2872   0.6644   0.6781   0.7187

          k = 0.0000 0.0000 0.3629 ( 24572 PWs)   bands (ev):

   -23.9582 -23.9521  -9.4173  -9.4130  -9.3937  -9.3570  -9.2116  -9.1890
    -5.5691  -4.8699  -4.6543  -4.5702  -1.3823  -1.1566  -0.7328  -0.6254
    -0.4720  -0.3650  -0.0049   0.2707   0.4694   0.4861   0.5607   0.7053

          k = 0.0000 0.0000-0.7258 ( 24600 PWs)   bands (ev):

   -23.9484 -23.9484  -9.6420  -9.6420  -9.2665  -9.2665  -9.2208  -9.2208
    -4.8517  -4.8516  -4.8182  -4.8182  -1.1747  -1.1746  -1.1440  -1.1440
    -0.0801  -0.0800  -0.0185  -0.0184   0.5130   0.5130   0.5518   0.5520

          k = 0.0000 0.2439 0.0000 ( 24565 PWs)   bands (ev):

   -23.9649 -23.9588  -9.4804  -9.3966  -9.2821  -9.2262  -9.1472  -9.1035
    -5.8820  -5.0624  -4.7482  -4.4669  -1.4267  -0.9913  -0.9320  -0.1738
    -0.1510  -0.1431   0.1129   0.2431   0.3424   0.3534   0.5775   0.6503

          k = 0.0000 0.2439 0.3629 ( 24567 PWs)   bands (ev):

   -23.9573 -23.9530  -9.4604  -9.4230  -9.3426  -9.3296  -9.2210  -9.2109
    -5.4646  -4.9444  -4.6957  -4.6070  -1.1996  -1.1797  -0.9834  -0.3989
    -0.3665  -0.1564  -0.1526   0.3155   0.4070   0.4264   0.5394   0.5903

          k = 0.0000 0.2439-0.7258 ( 24574 PWs)   bands (ev):

   -23.9484 -23.9484  -9.6548  -9.6548  -9.2487  -9.2487  -9.2202  -9.2202
    -5.1496  -5.1496  -4.5094  -4.5094  -1.3118  -1.3118  -0.9555  -0.9554
    -0.0068  -0.0067   0.0217   0.0218   0.3681   0.3683   0.5272   0.5272

          k = 0.0000-0.4877 0.0000 ( 24606 PWs)   bands (ev):

   -23.9619 -23.9619  -9.3999  -9.3999  -9.3064  -9.3064  -9.1252  -9.1252
    -5.3925  -5.3925  -4.7377  -4.7377  -1.1256  -1.1256  -0.4759  -0.4759
    -0.2284  -0.2284   0.2497   0.2497   0.3691   0.3691   0.5036   0.5036

          k = 0.0000-0.4877 0.3629 ( 24594 PWs)   bands (ev):

   -23.9551 -23.9551  -9.4600  -9.4600  -9.2884  -9.2884  -9.2484  -9.2484
    -5.2040  -5.2040  -4.6749  -4.6749  -1.1646  -1.1646  -0.7329  -0.7329
    -0.1322  -0.1322   0.1808   0.1808   0.2941   0.2941   0.5191   0.5191

          k = 0.0000-0.4877-0.7258 ( 24556 PWs)   bands (ev):

   -23.9484 -23.9484  -9.6667  -9.6667  -9.2337  -9.2337  -9.2177  -9.2177
    -5.2776  -5.2776  -4.3702  -4.3702  -1.4047  -1.4047  -0.7203  -0.7203
    -0.0697  -0.0697   0.1021   0.1021   0.1624   0.1624   0.5727   0.5727

          k = 0.2486 0.0000 0.0000 ( 24529 PWs)   bands (ev):

   -23.9649 -23.9588  -9.4713  -9.4067  -9.2731  -9.2415  -9.1472  -9.1035
    -5.8919  -5.1765  -4.5171  -4.4944  -1.5805  -0.7311  -0.7111  -0.5825
    -0.0418   0.0005   0.0423   0.0850   0.2310   0.2583   0.6228   0.6600

          k = 0.2486 0.0000 0.3629 ( 24590 PWs)   bands (ev):

   -23.9573 -23.9530  -9.4521  -9.4329  -9.3703  -9.3066  -9.2362  -9.1992
    -5.4255  -4.8579  -4.6978  -4.6852  -1.3553  -1.1237  -0.9866  -0.4433
    -0.4259  -0.1701   0.0400   0.1881   0.3279   0.4618   0.6289   0.6587

          k = 0.2486 0.0000-0.7258 ( 24618 PWs)   bands (ev):

   -23.9484 -23.9484  -9.6591  -9.6591  -9.2535  -9.2535  -9.2172  -9.2172
    -4.9682  -4.9682  -4.6733  -4.6733  -1.6249  -1.6249  -0.7118  -0.7118
    -0.0846  -0.0845   0.2102   0.2103   0.3303   0.3303   0.5751   0.5753

          k = 0.2486 0.2439 0.0000 ( 24576 PWs)   bands (ev):

   -23.9640 -23.9597  -9.4985  -9.3820  -9.3236  -9.1981  -9.1406  -9.1096
    -5.7539  -5.1478  -4.7443  -4.5184  -1.3073  -0.9661  -0.7445  -0.2839
    -0.2068  -0.1564   0.1177   0.2579   0.2681   0.3626   0.4534   0.5824

          k = 0.2486 0.2439 0.3629 ( 24577 PWs)   bands (ev):

   -23.9567 -23.9536  -9.4538  -9.4165  -9.4052  -9.2876  -9.2460  -9.1928
    -5.3385  -4.8981  -4.7801  -4.6788  -1.3222  -1.0965  -1.0013  -0.4469
    -0.2810  -0.1115  -0.0023   0.2209   0.2978   0.4175   0.5610   0.6425

          k = 0.2486 0.2439-0.7258 ( 24586 PWs)   bands (ev):

   -23.9484 -23.9484  -9.6659  -9.6436  -9.2733  -9.2358  -9.2241  -9.2181
    -5.1679  -4.9832  -4.6518  -4.4615  -1.6136  -1.5174  -0.8047  -0.6771
    -0.1326  -0.1258   0.1941   0.2648   0.3386   0.3937   0.5360   0.5467

          k = 0.2486-0.4877 0.0000 ( 24560 PWs)   bands (ev):

   -23.9618 -23.9618  -9.4729  -9.4729  -9.2330  -9.2330  -9.1248  -9.1248
    -5.4031  -5.4031  -4.7176  -4.7176  -1.0382  -1.0382  -0.4923  -0.4923
    -0.2663  -0.2663   0.1880   0.1880   0.4076   0.4076   0.4495   0.4495

          k = 0.2486-0.4877 0.3629 ( 24572 PWs)   bands (ev):

   -23.9551 -23.9551  -9.4481  -9.4481  -9.3481  -9.3481  -9.2071  -9.2071
    -5.1218  -5.1218  -4.7401  -4.7401  -1.2401  -1.2401  -0.6842  -0.6842
    -0.1429  -0.1429   0.1819   0.1819   0.3303   0.3303   0.5322   0.5322

          k = 0.2486-0.4877-0.7258 ( 24600 PWs)   bands (ev):

   -23.9484 -23.9484  -9.6513  -9.6513  -9.2561  -9.2561  -9.2237  -9.2237
    -5.1727  -5.1727  -4.4498  -4.4498  -1.5021  -1.5021  -0.8063  -0.8063
    -0.0243  -0.0243   0.1062   0.1062   0.3877   0.3877   0.5462   0.5462

          k =-0.4972 0.0000 0.0000 ( 24584 PWs)   bands (ev):

   -23.9618 -23.9618  -9.3795  -9.3795  -9.3339  -9.3339  -9.1252  -9.1252
    -5.4703  -5.4703  -4.5857  -4.5857  -1.1605  -1.1605  -0.3611  -0.3611
    -0.0008  -0.0008   0.0073   0.0073   0.0941   0.0941   0.5079   0.5079

          k =-0.4972 0.0000 0.3629 ( 24586 PWs)   bands (ev):

   -23.9551 -23.9551  -9.4629  -9.4629  -9.3082  -9.3082  -9.2352  -9.2352
    -5.0860  -5.0860  -4.7490  -4.7490  -1.2818  -1.2818  -0.7272  -0.7272
    -0.1366  -0.1366   0.0430   0.0430   0.4127   0.4127   0.6158   0.6158

          k =-0.4972 0.0000-0.7258 ( 24624 PWs)   bands (ev):

   -23.9484 -23.9484  -9.6750  -9.6750  -9.2432  -9.2432  -9.2120  -9.2120
    -5.0192  -5.0192  -4.5919  -4.5919  -1.8305  -1.8305  -0.4243  -0.4243
    -0.0858  -0.0858   0.0482   0.0482   0.5159   0.5159   0.5239   0.5239

          k =-0.4972 0.2439 0.0000 ( 24516 PWs)   bands (ev):

   -23.9618 -23.9618  -9.4711  -9.4711  -9.2384  -9.2384  -9.1249  -9.1249
    -5.4440  -5.4440  -4.6396  -4.6396  -1.0662  -1.0662  -0.3831  -0.3831
    -0.2028  -0.2028  -0.0228  -0.0228   0.3242   0.3242   0.4977   0.4977

          k =-0.4972 0.2439 0.3629 ( 24586 PWs)   bands (ev):

   -23.9551 -23.9551  -9.4499  -9.4499  -9.3524  -9.3524  -9.2058  -9.2058
    -5.0462  -5.0462  -4.7934  -4.7934  -1.2886  -1.2886  -0.7153  -0.7153
    -0.0905  -0.0905   0.0803   0.0803   0.4160   0.4160   0.5542   0.5542

          k =-0.4972 0.2439-0.7258 ( 24596 PWs)   bands (ev):

   -23.9484 -23.9484  -9.6558  -9.6558  -9.2589  -9.2589  -9.2224  -9.2224
    -5.0270  -5.0270  -4.5770  -4.5770  -1.7314  -1.7314  -0.6423  -0.6423
    -0.0396  -0.0396   0.1180   0.1180   0.4552   0.4552   0.6024   0.6024

          k =-0.4972-0.4877 0.0000 ( 24532 PWs)   bands (ev):

   -23.9618 -23.9618  -9.5159  -9.5159  -9.1897  -9.1897  -9.1245  -9.1245
    -5.4146  -5.4146  -4.6958  -4.6958  -0.9343  -0.9343  -0.5276  -0.5276
    -0.3003  -0.3003   0.1541   0.1541   0.3687   0.3687   0.4421   0.4421

          k =-0.4972-0.4877 0.3629 ( 24572 PWs)   bands (ev):

   -23.9551 -23.9551  -9.4220  -9.4220  -9.3997  -9.3997  -9.1881  -9.1881
    -4.9847  -4.9847  -4.8593  -4.8593  -1.2796  -1.2796  -0.7585  -0.7585
     0.0239   0.0239   0.2075   0.2075   0.3067   0.3067   0.4855   0.4855

          k =-0.4972-0.4877-0.7258 ( 24592 PWs)   bands (ev):

   -23.9484 -23.9484  -9.6343  -9.6343  -9.2806  -9.2806  -9.2291  -9.2291
    -5.0351  -5.0351  -4.5617  -4.5617  -1.5771  -1.5771  -0.9326  -0.9326
     0.1372   0.1372   0.2326   0.2326   0.3313   0.3313   0.5802   0.5802

     highest occupied level (ev):     0.7187

!    total energy              =    -156.47455917 Ry
     estimated scf accuracy    <          7.6E-13 Ry

     The total energy is the sum of the following terms:
     one-electron contribution =     -23.54594978 Ry
     hartree contribution      =      26.01947544 Ry
     xc contribution           =     -49.11398901 Ry
     ewald contribution        =    -109.83409582 Ry

     convergence has been achieved in  13 iterations

     Forces acting on atoms (cartesian axes, Ry/au):

     atom    1 type  2   force =     0.00000000    0.00000000   -0.00000695
     atom    2 type  2   force =     0.00000000    0.00000000    0.00000695
     atom    3 type  1   force =    -0.00000238    0.00000169    0.00000142
     atom    4 type  1   force =     0.00000238   -0.00000169    0.00000142
     atom    5 type  1   force =    -0.00000238   -0.00000169   -0.00000142
     atom    6 type  1   force =     0.00000238    0.00000169   -0.00000142
     atom    7 type  3   force =     0.00000679    0.00000262    0.00000607
     atom    8 type  3   force =    -0.00000679   -0.00000262    0.00000607
     atom    9 type  3   force =     0.00000679   -0.00000262   -0.00000607
     atom   10 type  3   force =    -0.00000679    0.00000262   -0.00000607
     atom   11 type  3   force =    -0.00000835   -0.00000800   -0.00000577
     atom   12 type  3   force =     0.00000835    0.00000800   -0.00000577
     atom   13 type  3   force =    -0.00000835    0.00000800    0.00000577
     atom   14 type  3   force =     0.00000835   -0.00000800    0.00000577
     atom   15 type  3   force =     0.00000381    0.00000516    0.00000767
     atom   16 type  3   force =    -0.00000381   -0.00000516    0.00000767
     atom   17 type  3   force =     0.00000381   -0.00000516   -0.00000767
     atom   18 type  3   force =    -0.00000381    0.00000516   -0.00000767
     atom   19 type  3   force =    -0.00000096    0.00000007   -0.00000641
     atom   20 type  3   force =     0.00000096   -0.00000007   -0.00000641
     atom   21 type  3   force =    -0.00000096   -0.00000007    0.00000641
     atom   22 type  3   force =     0.00000096    0.00000007    0.00000641

     Total force =     0.000042     Total SCF correction =     0.000000


     Computing stress (Cartesian axis) and pressure

          total   stress  (Ry/bohr**3)                   (kbar)     P=       -3.05
  -0.00002069   0.00000000   0.00000000           -3.04        0.00        0.00
   0.00000000  -0.00002074   0.00000000            0.00       -3.05        0.00
   0.00000000   0.00000000  -0.00002076            0.00        0.00       -3.05


     Writing all to output data dir ./pwscf.save/ :
     XML data file, charge density, pseudopotentials, collected wavefunctions

     init_run     :      8.06s CPU      8.45s WALL (       2 calls)
     electrons    :   3021.55s CPU   3127.16s WALL (      57 calls)
     update_pot   :      5.50s CPU      6.06s WALL (      55 calls)
     forces       :     98.60s CPU     99.99s WALL (      57 calls)
     stress       :    345.71s CPU    347.18s WALL (      57 calls)

     Called by init_run:
     wfcinit      :      6.62s CPU      6.90s WALL (       2 calls)
     potinit      :      0.38s CPU      0.39s WALL (       2 calls)
     hinit0       :      0.58s CPU      0.62s WALL (       2 calls)

     Called by electrons:
     c_bands      :   2608.80s CPU   2696.69s WALL (     414 calls)
     sum_band     :    355.37s CPU    370.41s WALL (     414 calls)
     v_of_rho     :     25.46s CPU     26.44s WALL (     419 calls)
     newd         :     33.90s CPU     34.73s WALL (     419 calls)
     mix_rho      :      2.36s CPU      2.51s WALL (     414 calls)

     Called by c_bands:
     init_us_2    :     71.92s CPU     72.63s WALL (   25488 calls)
     cegterg      :   2478.76s CPU   2565.84s WALL (   11178 calls)

     Called by *egterg:
     cdiaghg      :     37.70s CPU     37.93s WALL (   42103 calls)
     h_psi        :   1620.92s CPU   1705.79s WALL (   45046 calls)
     s_psi        :    356.42s CPU    357.21s WALL (   45046 calls)
     g_psi        :      6.97s CPU      7.00s WALL (   33814 calls)

     Called by h_psi:
     h_psi:calbec :    373.66s CPU    381.07s WALL (   45046 calls)
     vloc_psi     :    891.67s CPU    968.34s WALL (   45046 calls)
     add_vuspsi   :    351.53s CPU    352.49s WALL (   45046 calls)

     General routines
     calbec       :    579.99s CPU    589.43s WALL (   63919 calls)
     fft          :     15.03s CPU     15.98s WALL (    6865 calls)
     ffts         :      0.95s CPU      0.99s WALL (     833 calls)
     fftw         :    923.22s CPU   1002.46s WALL ( 1886812 calls)
     interpolate  :      1.73s CPU      1.85s WALL (     419 calls)

     Parallel routines

     PWSCF        :  58m 6.41s CPU  59m56.96s WALL


   This run was terminated on:  16: 0:15  12Jul2024            

=------------------------------------------------------------------------------=
   JOB DONE.
=------------------------------------------------------------------------------=
